

Host: DESKTOP-G71OVQ2

Host: DESKTOP-G71OVQ2


Timers On : Thu Aug 15 15:24:46 2024
Timers On : Thu Aug 15 15:24:46 2024
Host: DESKTOP-G71OVQ2
Timers Off: Thu Aug 15 15:24:49 2024

Timers Off: Thu Aug 15 15:24:49 2024

Wall Time:        3.10 seconds

                                                       Time (seconds)

Wall Time:        3.13 seconds

Module                                       User      System        Wall        Calls
                                                       Time (seconds)

--------------------------------------------------------------------------------------
Timers On : Thu Aug 15 15:24:46 2024
Module                                       User      System        Wall        Calls

**************************************************************************************
Timers Off: Thu Aug 15 15:24:49 2024

--------------------------------------------------------------------------------------

Wall Time:        3.08 seconds


**************************************************************************************
                                                       Time (seconds)

Module                                       User      System        Wall        Calls

--------------------------------------------------------------------------------------
Host: DESKTOP-G71OVQ2

**************************************************************************************

Timers On : Thu Aug 15 15:24:46 2024

Timers Off: Thu Aug 15 15:24:49 2024
Host: DESKTOP-G71OVQ2

Wall Time:        3.09 seconds


                                                       Time (seconds)
Module                                       User      System        Wall        Calls

--------------------------------------------------------------------------------------

**************************************************************************************
Timers On : Thu Aug 15 15:24:46 2024

Timers Off: Thu Aug 15 15:24:49 2024
Host: DESKTOP-G71OVQ2

Wall Time:        3.18 seconds


                                                       Time (seconds)

Module                                       User      System        Wall        Calls

--------------------------------------------------------------------------------------
Timers On : Thu Aug 15 15:24:46 2024
Host: DESKTOP-G71OVQ2

**************************************************************************************

Timers Off: Thu Aug 15 15:24:49 2024

Wall Time:        3.11 seconds

                                                       Time (seconds)
Module                                       User      System        Wall        Calls
Timers On : Thu Aug 15 15:24:46 2024

--------------------------------------------------------------------------------------

**************************************************************************************
Timers Off: Thu Aug 15 15:24:49 2024

Wall Time:        3.09 seconds

                                                       Time (seconds)
Module                                       User      System        Wall        Calls

--------------------------------------------------------------------------------------

**************************************************************************************

Host: DESKTOP-G71OVQ2

Timers On : Thu Aug 15 15:24:46 2024
Timers Off: Thu Aug 15 15:24:49 2024

Wall Time:        3.15 seconds


                                                       Time (seconds)
Module                                       User      System        Wall        Calls
Host: DESKTOP-G71OVQ2


--------------------------------------------------------------------------------------

**************************************************************************************
Timers On : Thu Aug 15 15:24:46 2024
Timers Off: Thu Aug 15 15:24:49 2024

Wall Time:        3.16 seconds

                                                       Time (seconds)
Module                                       User      System        Wall        Calls

--------------------------------------------------------------------------------------

**************************************************************************************

Host: DESKTOP-G71OVQ2

Timers On : Thu Aug 15 15:24:46 2024
Timers Off: Thu Aug 15 15:24:49 2024

Wall Time:        3.13 seconds

                                                       Time (seconds)
Module                                       User      System        Wall        Calls

--------------------------------------------------------------------------------------

**************************************************************************************

Host: DESKTOP-G71OVQ2


Timers On : Thu Aug 15 15:24:46 2024
Host: DESKTOP-G71OVQ2
Timers Off: Thu Aug 15 15:24:49 2024


Wall Time:        3.14 seconds

                                                       Time (seconds)

Module                                       User      System        Wall        Calls
Timers On : Thu Aug 15 15:24:46 2024
Host: DESKTOP-G71OVQ2

--------------------------------------------------------------------------------------


**************************************************************************************
Timers Off: Thu Aug 15 15:24:49 2024


Wall Time:        3.15 seconds

Timers On : Thu Aug 15 15:24:46 2024
                                                       Time (seconds)
Host: DESKTOP-G71OVQ2
Module                                       User      System        Wall        Calls


--------------------------------------------------------------------------------------
Timers Off: Thu Aug 15 15:24:49 2024

**************************************************************************************
Timers On : Thu Aug 15 15:24:46 2024

Wall Time:        3.09 seconds

Timers Off: Thu Aug 15 15:24:49 2024
                                                       Time (seconds)

Wall Time:        3.14 seconds

                                                       Time (seconds)
Module                                       User      System        Wall        Calls
Module                                       User      System        Wall        Calls

--------------------------------------------------------------------------------------

--------------------------------------------------------------------------------------

**************************************************************************************

**************************************************************************************




Host: DESKTOP-G71OVQ2
Host: DESKTOP-G71OVQ2
Host: DESKTOP-G71OVQ2

Host: DESKTOP-G71OVQ2



Timers On : Thu Aug 15 15:24:46 2024
Timers On : Thu Aug 15 15:24:46 2024
Timers On : Thu Aug 15 15:24:46 2024
Timers On : Thu Aug 15 15:24:46 2024

Timers Off: Thu Aug 15 15:24:49 2024
Timers Off: Thu Aug 15 15:24:49 2024
Timers Off: Thu Aug 15 15:24:49 2024
Timers Off: Thu Aug 15 15:24:49 2024





Host: DESKTOP-G71OVQ2

Wall Time:        3.21 seconds


Wall Time:        3.19 seconds


Wall Time:        3.20 seconds





Wall Time:        3.11 seconds






Host: DESKTOP-G71OVQ2
Host: DESKTOP-G71OVQ2

Host: DESKTOP-G71OVQ2


                                                       Time (seconds)
Host: DESKTOP-G71OVQ2
Host: DESKTOP-G71OVQ2
                                                       Time (seconds)
Host: DESKTOP-G71OVQ2
Host: DESKTOP-G71OVQ2
Host: DESKTOP-G71OVQ2
Host: DESKTOP-G71OVQ2
Host: DESKTOP-G71OVQ2

Host: DESKTOP-G71OVQ2





Module                                       User      System        Wall        Calls
Host: DESKTOP-G71OVQ2

Host: DESKTOP-G71OVQ2


Timers On : Thu Aug 15 15:24:46 2024
Module                                       User      System        Wall        Calls




Host: DESKTOP-G71OVQ2
Host: DESKTOP-G71OVQ2

Timers On : Thu Aug 15 15:24:46 2024

--------------------------------------------------------------------------------------

Timers On : Thu Aug 15 15:24:46 2024

Timers On : Thu Aug 15 15:24:46 2024
Timers On : Thu Aug 15 15:24:46 2024
Timers On : Thu Aug 15 15:24:46 2024

--------------------------------------------------------------------------------------
Timers Off: Thu Aug 15 15:24:49 2024
Timers On : Thu Aug 15 15:24:46 2024
Timers On : Thu Aug 15 15:24:46 2024
Timers On : Thu Aug 15 15:24:46 2024
Timers On : Thu Aug 15 15:24:46 2024
Timers On : Thu Aug 15 15:24:46 2024
Timers On : Thu Aug 15 15:24:46 2024



**************************************************************************************
Host: DESKTOP-G71OVQ2
Timers Off: Thu Aug 15 15:24:49 2024
Timers Off: Thu Aug 15 15:24:49 2024
Timers Off: Thu Aug 15 15:24:49 2024
Timers Off: Thu Aug 15 15:24:49 2024
Timers Off: Thu Aug 15 15:24:49 2024
Timers On : Thu Aug 15 15:24:46 2024
Timers On : Thu Aug 15 15:24:46 2024

**************************************************************************************
Timers Off: Thu Aug 15 15:24:49 2024

Wall Time:        3.12 seconds

Timers Off: Thu Aug 15 15:24:49 2024
Timers Off: Thu Aug 15 15:24:49 2024
Timers Off: Thu Aug 15 15:24:49 2024
Timers Off: Thu Aug 15 15:24:49 2024
Timers Off: Thu Aug 15 15:24:49 2024
Timers On : Thu Aug 15 15:24:46 2024

Timers Off: Thu Aug 15 15:24:49 2024

Wall Time:        3.12 seconds


Wall Time:        3.13 seconds


Wall Time:        3.11 seconds


Wall Time:        3.10 seconds


Wall Time:        3.10 seconds

Timers Off: Thu Aug 15 15:24:49 2024
                                                       Time (seconds)

Wall Time:        3.08 seconds

Timers On : Thu Aug 15 15:24:46 2024

Wall Time:        3.10 seconds

                                                       Time (seconds)

Wall Time:        3.12 seconds

                                                       Time (seconds)

Wall Time:        3.11 seconds


Wall Time:        3.11 seconds

                                                       Time (seconds)

Wall Time:        3.09 seconds


Wall Time:        3.09 seconds

Timers Off: Thu Aug 15 15:24:49 2024
                                                       Time (seconds)
                                                       Time (seconds)
Timers On : Thu Aug 15 15:24:46 2024
                                                       Time (seconds)
                                                       Time (seconds)
Timers Off: Thu Aug 15 15:24:49 2024
                                                       Time (seconds)

Wall Time:        3.11 seconds

Module                                       User      System        Wall        Calls
                                                       Time (seconds)
Module                                       User      System        Wall        Calls
                                                       Time (seconds)
Module                                       User      System        Wall        Calls
                                                       Time (seconds)
                                                       Time (seconds)
Module                                       User      System        Wall        Calls

Wall Time:        3.12 seconds

Module                                       User      System        Wall        Calls


--------------------------------------------------------------------------------------
Module                                       User      System        Wall        Calls
Module                                       User      System        Wall        Calls

--------------------------------------------------------------------------------------
Module                                       User      System        Wall        Calls
                                                       Time (seconds)
Module                                       User      System        Wall        Calls
Timers Off: Thu Aug 15 15:24:49 2024

--------------------------------------------------------------------------------------
Module                                       User      System        Wall        Calls
Module                                       User      System        Wall        Calls

Wall Time:        3.11 seconds

Module                                       User      System        Wall        Calls
Module                                       User      System        Wall        Calls

--------------------------------------------------------------------------------------

**************************************************************************************

--------------------------------------------------------------------------------------

--------------------------------------------------------------------------------------
                                                       Time (seconds)

**************************************************************************************
Host: DESKTOP-G71OVQ2

--------------------------------------------------------------------------------------

**************************************************************************************
Module                                       User      System        Wall        Calls

Wall Time:        3.12 seconds


--------------------------------------------------------------------------------------

--------------------------------------------------------------------------------------

--------------------------------------------------------------------------------------
                                                       Time (seconds)

--------------------------------------------------------------------------------------

--------------------------------------------------------------------------------------

--------------------------------------------------------------------------------------

**************************************************************************************

**************************************************************************************


**************************************************************************************

**************************************************************************************

                                                       Time (seconds)

--------------------------------------------------------------------------------------

**************************************************************************************

**************************************************************************************
Module                                       User      System        Wall        Calls

**************************************************************************************
Module                                       User      System        Wall        Calls

**************************************************************************************

**************************************************************************************

**************************************************************************************

**************************************************************************************
Module                                       User      System        Wall        Calls
Host: DESKTOP-G71OVQ2

--------------------------------------------------------------------------------------

--------------------------------------------------------------------------------------
Timers On : Thu Aug 15 15:24:46 2024

--------------------------------------------------------------------------------------


**************************************************************************************

**************************************************************************************

**************************************************************************************
Timers Off: Thu Aug 15 15:24:49 2024
Host: DESKTOP-G71OVQ2

Wall Time:        3.19 seconds

Timers On : Thu Aug 15 15:24:46 2024
                                                       Time (seconds)
Timers Off: Thu Aug 15 15:24:49 2024

Module                                       User      System        Wall        Calls


--------------------------------------------------------------------------------------

Wall Time:        3.26 seconds

Host: DESKTOP-G71OVQ2

**************************************************************************************


                                                       Time (seconds)
Timers On : Thu Aug 15 15:24:46 2024
Module                                       User      System        Wall        Calls
Timers Off: Thu Aug 15 15:24:49 2024
Host: DESKTOP-G71OVQ2

--------------------------------------------------------------------------------------


Wall Time:        3.08 seconds


**************************************************************************************
Timers On : Thu Aug 15 15:24:46 2024
                                                       Time (seconds)
Timers On : Thu Aug 15 15:24:46 2024
Module                                       User      System        Wall        Calls
Timers Off: Thu Aug 15 15:24:49 2024
Timers Off: Thu Aug 15 15:24:49 2024

--------------------------------------------------------------------------------------

Wall Time:        3.11 seconds


Wall Time:        3.15 seconds

                                                       Time (seconds)
                                                       Time (seconds)

**************************************************************************************
Module                                       User      System        Wall        Calls
Module                                       User      System        Wall        Calls

--------------------------------------------------------------------------------------

**************************************************************************************


--------------------------------------------------------------------------------------
Host: DESKTOP-G71OVQ2

Host: DESKTOP-G71OVQ2

**************************************************************************************
Timers On : Thu Aug 15 15:24:46 2024
Timers Off: Thu Aug 15 15:24:49 2024


Wall Time:        3.09 seconds

                                                       Time (seconds)
Module                                       User      System        Wall        Calls

--------------------------------------------------------------------------------------
Timers On : Thu Aug 15 15:24:46 2024

**************************************************************************************
                                                       Time (seconds)
Timers Off: Thu Aug 15 15:24:49 2024
Module                                       User      System        Wall        Calls

--------------------------------------------------------------------------------------

**************************************************************************************


Wall Time:        3.12 seconds


                                                       Time (seconds)
Host: DESKTOP-G71OVQ2

Module                                       User      System        Wall        Calls

--------------------------------------------------------------------------------------
Host: DESKTOP-G71OVQ2

**************************************************************************************


Timers On : Thu Aug 15 15:24:46 2024
Timers On : Thu Aug 15 15:24:46 2024
Timers Off: Thu Aug 15 15:24:49 2024
Timers Off: Thu Aug 15 15:24:49 2024

Wall Time:        3.12 seconds

                                                       Time (seconds)

Wall Time:        3.08 seconds

Host: DESKTOP-G71OVQ2
Module                                       User      System        Wall        Calls
                                                       Time (seconds)


--------------------------------------------------------------------------------------
Module                                       User      System        Wall        Calls

**************************************************************************************

--------------------------------------------------------------------------------------

**************************************************************************************
Timers On : Thu Aug 15 15:24:46 2024
Timers Off: Thu Aug 15 15:24:49 2024

Wall Time:        3.14 seconds

                                                       Time (seconds)
Module                                       User      System        Wall        Calls

--------------------------------------------------------------------------------------

**************************************************************************************
                                                       Time (seconds)
Module                                       User      System        Wall        Calls

--------------------------------------------------------------------------------------

**************************************************************************************

Host: DESKTOP-G71OVQ2

Timers On : Thu Aug 15 15:24:46 2024
Timers Off: Thu Aug 15 15:24:49 2024

Wall Time:        3.10 seconds

                                                       Time (seconds)
Module                                       User      System        Wall        Calls

--------------------------------------------------------------------------------------

**************************************************************************************

Host: DESKTOP-G71OVQ2

Timers On : Thu Aug 15 15:24:55 2024
Timers Off: Thu Aug 15 15:24:56 2024

Wall Time:        1.57 seconds

                                                       Time (seconds)
Module                                       User      System        Wall        Calls

--------------------------------------------------------------------------------------

**************************************************************************************

Host: DESKTOP-G71OVQ2

Timers On : Thu Aug 15 15:24:54 2024
Timers Off: Thu Aug 15 15:24:56 2024

Wall Time:        2.73 seconds

                                                       Time (seconds)
Module                                       User      System        Wall        Calls

--------------------------------------------------------------------------------------

**************************************************************************************

Host: DESKTOP-G71OVQ2

Timers On : Thu Aug 15 15:24:55 2024
Timers Off: Thu Aug 15 15:24:56 2024

Wall Time:        1.59 seconds

                                                       Time (seconds)
Module                                       User      System        Wall        Calls

--------------------------------------------------------------------------------------

**************************************************************************************

Host: DESKTOP-G71OVQ2

Timers On : Thu Aug 15 15:24:54 2024
Timers Off: Thu Aug 15 15:24:56 2024


Wall Time:        2.42 seconds

                                                       Time (seconds)
Host: DESKTOP-G71OVQ2
Module                                       User      System        Wall        Calls


--------------------------------------------------------------------------------------

**************************************************************************************
Timers On : Thu Aug 15 15:24:54 2024

Timers Off: Thu Aug 15 15:24:56 2024
Host: DESKTOP-G71OVQ2

Wall Time:        2.46 seconds


                                                       Time (seconds)
Module                                       User      System        Wall        Calls

--------------------------------------------------------------------------------------

**************************************************************************************
Timers On : Thu Aug 15 15:24:55 2024
Timers Off: Thu Aug 15 15:24:56 2024

Wall Time:        1.46 seconds

                                                       Time (seconds)

Module                                       User      System        Wall        Calls

--------------------------------------------------------------------------------------
Host: DESKTOP-G71OVQ2

**************************************************************************************

Timers On : Thu Aug 15 15:24:54 2024
Timers Off: Thu Aug 15 15:24:56 2024


Wall Time:        2.81 seconds

                                                       Time (seconds)
Host: DESKTOP-G71OVQ2
Module                                       User      System        Wall        Calls


--------------------------------------------------------------------------------------

**************************************************************************************

Timers On : Thu Aug 15 15:24:55 2024
Host: DESKTOP-G71OVQ2

Timers Off: Thu Aug 15 15:24:56 2024


Wall Time:        1.26 seconds

Timers On : Thu Aug 15 15:24:55 2024
                                                       Time (seconds)
Host: DESKTOP-G71OVQ2
Timers Off: Thu Aug 15 15:24:56 2024
Module                                       User      System        Wall        Calls


Wall Time:        1.10 seconds


--------------------------------------------------------------------------------------
                                                       Time (seconds)

**************************************************************************************
Module                                       User      System        Wall        Calls

--------------------------------------------------------------------------------------

**************************************************************************************
Timers On : Thu Aug 15 15:24:55 2024
Timers Off: Thu Aug 15 15:24:56 2024

Wall Time:        1.27 seconds

                                                       Time (seconds)
Module                                       User      System        Wall        Calls

--------------------------------------------------------------------------------------

**************************************************************************************

Host: DESKTOP-G71OVQ2

Timers On : Thu Aug 15 15:24:54 2024
Timers Off: Thu Aug 15 15:24:56 2024

Wall Time:        2.31 seconds

                                                       Time (seconds)
Module                                       User      System        Wall        Calls

--------------------------------------------------------------------------------------

**************************************************************************************

Host: DESKTOP-G71OVQ2

Timers On : Thu Aug 15 15:24:54 2024
Timers Off: Thu Aug 15 15:24:56 2024


Wall Time:        2.19 seconds

                                                       Time (seconds)
Module                                       User      System        Wall        Calls

--------------------------------------------------------------------------------------
Host: DESKTOP-G71OVQ2

**************************************************************************************

Timers On : Thu Aug 15 15:24:53 2024
Timers Off: Thu Aug 15 15:24:56 2024

Wall Time:        3.41 seconds

                                                       Time (seconds)
Module                                       User      System        Wall        Calls

--------------------------------------------------------------------------------------

**************************************************************************************

Host: DESKTOP-G71OVQ2


Timers On : Thu Aug 15 15:24:55 2024
Host: DESKTOP-G71OVQ2

Timers Off: Thu Aug 15 15:24:56 2024

Wall Time:        1.29 seconds

                                                       Time (seconds)
Timers On : Thu Aug 15 15:24:55 2024
Module                                       User      System        Wall        Calls

--------------------------------------------------------------------------------------
Timers Off: Thu Aug 15 15:24:56 2024

**************************************************************************************

Wall Time:        1.19 seconds

                                                       Time (seconds)
Module                                       User      System        Wall        Calls

--------------------------------------------------------------------------------------

**************************************************************************************

Host: DESKTOP-G71OVQ2

Timers On : Thu Aug 15 15:24:54 2024

Timers Off: Thu Aug 15 15:24:56 2024
Host: DESKTOP-G71OVQ2


Wall Time:        2.26 seconds

                                                       Time (seconds)
Timers On : Thu Aug 15 15:24:55 2024
Module                                       User      System        Wall        Calls
Timers Off: Thu Aug 15 15:24:56 2024

--------------------------------------------------------------------------------------


**************************************************************************************

Wall Time:        1.07 seconds

                                                       Time (seconds)
Module                                       User      System        Wall        Calls
Host: DESKTOP-G71OVQ2

--------------------------------------------------------------------------------------


**************************************************************************************
Timers On : Thu Aug 15 15:24:54 2024
Timers Off: Thu Aug 15 15:24:56 2024

Wall Time:        2.84 seconds

                                                       Time (seconds)
Module                                       User      System        Wall        Calls

--------------------------------------------------------------------------------------

**************************************************************************************


Host: DESKTOP-G71OVQ2

Timers On : Thu Aug 15 15:24:54 2024
Host: DESKTOP-G71OVQ2
Timers Off: Thu Aug 15 15:24:56 2024


Wall Time:        2.33 seconds

                                                       Time (seconds)
Module                                       User      System        Wall        Calls

--------------------------------------------------------------------------------------

**************************************************************************************
Timers On : Thu Aug 15 15:24:55 2024

Timers Off: Thu Aug 15 15:24:56 2024
Host: DESKTOP-G71OVQ2

Wall Time:        1.05 seconds


                                                       Time (seconds)
Module                                       User      System        Wall        Calls

--------------------------------------------------------------------------------------

**************************************************************************************
Timers On : Thu Aug 15 15:24:54 2024
Timers Off: Thu Aug 15 15:24:56 2024

Wall Time:        2.12 seconds

                                                       Time (seconds)
Module                                       User      System        Wall        Calls

--------------------------------------------------------------------------------------

**************************************************************************************

Host: DESKTOP-G71OVQ2

Timers On : Thu Aug 15 15:24:53 2024
Timers Off: Thu Aug 15 15:24:56 2024


Wall Time:        3.50 seconds

                                                       Time (seconds)
Host: DESKTOP-G71OVQ2
Module                                       User      System        Wall        Calls


--------------------------------------------------------------------------------------

**************************************************************************************
Timers On : Thu Aug 15 15:24:54 2024
Timers Off: Thu Aug 15 15:24:56 2024

Wall Time:        2.51 seconds

                                                       Time (seconds)
Module                                       User      System        Wall        Calls

--------------------------------------------------------------------------------------

**************************************************************************************

Host: DESKTOP-G71OVQ2

Timers On : Thu Aug 15 15:24:54 2024
Timers Off: Thu Aug 15 15:24:56 2024

Wall Time:        2.16 seconds

                                                       Time (seconds)
Module                                       User      System        Wall        Calls

--------------------------------------------------------------------------------------

**************************************************************************************

Host: DESKTOP-G71OVQ2

Timers On : Thu Aug 15 15:24:54 2024

Timers Off: Thu Aug 15 15:24:56 2024
Host: DESKTOP-G71OVQ2


Wall Time:        2.82 seconds

                                                       Time (seconds)
Module                                       User      System        Wall        Calls
Timers On : Thu Aug 15 15:24:54 2024

--------------------------------------------------------------------------------------

**************************************************************************************
Timers Off: Thu Aug 15 15:24:56 2024

Wall Time:        2.09 seconds

                                                       Time (seconds)
Module                                       User      System        Wall        Calls

--------------------------------------------------------------------------------------

**************************************************************************************

Host: DESKTOP-G71OVQ2

Timers On : Thu Aug 15 15:24:53 2024
Timers Off: Thu Aug 15 15:24:56 2024

Wall Time:        3.04 seconds

                                                       Time (seconds)
Module                                       User      System        Wall        Calls

--------------------------------------------------------------------------------------


**************************************************************************************
Host: DESKTOP-G71OVQ2

Timers On : Thu Aug 15 15:24:55 2024
Timers Off: Thu Aug 15 15:24:56 2024

Wall Time:        0.97 seconds

                                                       Time (seconds)
Module                                       User      System        Wall        Calls

--------------------------------------------------------------------------------------

**************************************************************************************

Host: DESKTOP-G71OVQ2

Timers On : Thu Aug 15 15:24:54 2024
Timers Off: Thu Aug 15 15:24:56 2024


Wall Time:        2.73 seconds

                                                       Time (seconds)
Host: DESKTOP-G71OVQ2
Module                                       User      System        Wall        Calls


--------------------------------------------------------------------------------------

**************************************************************************************

Timers On : Thu Aug 15 15:24:54 2024
Host: DESKTOP-G71OVQ2
Timers Off: Thu Aug 15 15:24:56 2024


Wall Time:        2.27 seconds

                                                       Time (seconds)
Module                                       User      System        Wall        Calls

--------------------------------------------------------------------------------------

**************************************************************************************
Timers On : Thu Aug 15 15:24:55 2024
Timers Off: Thu Aug 15 15:24:56 2024

Wall Time:        1.00 seconds

                                                       Time (seconds)
Module                                       User      System        Wall        Calls

--------------------------------------------------------------------------------------

**************************************************************************************

Host: DESKTOP-G71OVQ2

Timers On : Thu Aug 15 15:24:53 2024
Timers Off: Thu Aug 15 15:24:56 2024


Wall Time:        3.16 seconds

                                                       Time (seconds)
Host: DESKTOP-G71OVQ2
Module                                       User      System        Wall        Calls


--------------------------------------------------------------------------------------

**************************************************************************************
Timers On : Thu Aug 15 15:24:56 2024
Timers Off: Thu Aug 15 15:24:56 2024

Wall Time:        0.86 seconds

                                                       Time (seconds)
Module                                       User      System        Wall        Calls


--------------------------------------------------------------------------------------

**************************************************************************************
Host: DESKTOP-G71OVQ2

Timers On : Thu Aug 15 15:24:54 2024
Timers Off: Thu Aug 15 15:24:56 2024

Wall Time:        1.92 seconds

                                                       Time (seconds)
Module                                       User      System        Wall        Calls

--------------------------------------------------------------------------------------

**************************************************************************************

Host: DESKTOP-G71OVQ2

Timers On : Thu Aug 15 15:24:54 2024
Timers Off: Thu Aug 15 15:24:56 2024

Wall Time:        2.53 seconds

                                                       Time (seconds)

Module                                       User      System        Wall        Calls

--------------------------------------------------------------------------------------

**************************************************************************************
Host: DESKTOP-G71OVQ2

Timers On : Thu Aug 15 15:24:55 2024
Timers Off: Thu Aug 15 15:24:56 2024

Wall Time:        0.95 seconds

                                                       Time (seconds)
Module                                       User      System        Wall        Calls

--------------------------------------------------------------------------------------

**************************************************************************************

Host: DESKTOP-G71OVQ2

Timers On : Thu Aug 15 15:24:53 2024
Timers Off: Thu Aug 15 15:24:56 2024

Wall Time:        3.21 seconds

                                                       Time (seconds)
Module                                       User      System        Wall        Calls

--------------------------------------------------------------------------------------

**************************************************************************************

Host: DESKTOP-G71OVQ2

Timers On : Thu Aug 15 15:24:54 2024
Timers Off: Thu Aug 15 15:24:56 2024

Wall Time:        1.97 seconds

                                                       Time (seconds)
Module                                       User      System        Wall        Calls

--------------------------------------------------------------------------------------

**************************************************************************************

Host: DESKTOP-G71OVQ2

Timers On : Thu Aug 15 15:24:56 2024
Timers Off: Thu Aug 15 15:24:56 2024

Wall Time:        0.80 seconds

                                                       Time (seconds)
Module                                       User      System        Wall        Calls

--------------------------------------------------------------------------------------

**************************************************************************************

Host: DESKTOP-G71OVQ2

Timers On : Thu Aug 15 15:24:55 2024
Timers Off: Thu Aug 15 15:24:56 2024

Wall Time:        1.86 seconds

                                                       Time (seconds)
Module                                       User      System        Wall        Calls

--------------------------------------------------------------------------------------

**************************************************************************************

Host: DESKTOP-G71OVQ2

Timers On : Thu Aug 15 15:24:54 2024
Timers Off: Thu Aug 15 15:24:56 2024

Wall Time:        2.36 seconds

                                                       Time (seconds)
Module                                       User      System        Wall        Calls

--------------------------------------------------------------------------------------

**************************************************************************************


Host: DESKTOP-G71OVQ2

Timers On : Thu Aug 15 15:24:55 2024
Timers Off: Thu Aug 15 15:24:56 2024

Wall Time:        1.81 seconds

                                                       Time (seconds)
Module                                       User      System        Wall        Calls

--------------------------------------------------------------------------------------
Host: DESKTOP-G71OVQ2

**************************************************************************************

Timers On : Thu Aug 15 15:24:56 2024
Timers Off: Thu Aug 15 15:24:56 2024

Wall Time:        0.79 seconds

                                                       Time (seconds)
Module                                       User      System        Wall        Calls

--------------------------------------------------------------------------------------

**************************************************************************************

Host: DESKTOP-G71OVQ2

Timers On : Thu Aug 15 15:24:54 2024
Timers Off: Thu Aug 15 15:24:56 2024

Wall Time:        2.61 seconds

                                                       Time (seconds)
Module                                       User      System        Wall        Calls

--------------------------------------------------------------------------------------

**************************************************************************************

Host: DESKTOP-G71OVQ2

Timers On : Thu Aug 15 15:24:54 2024
Timers Off: Thu Aug 15 15:24:56 2024

Wall Time:        2.86 seconds

                                                       Time (seconds)
Module                                       User      System        Wall        Calls

--------------------------------------------------------------------------------------

**************************************************************************************

Host: DESKTOP-G71OVQ2


Host: DESKTOP-G71OVQ2

Host: DESKTOP-G71OVQ2


Timers On : Thu Aug 15 15:24:55 2024
Timers On : Thu Aug 15 15:24:56 2024
Timers Off: Thu Aug 15 15:24:56 2024
Timers On : Thu Aug 15 15:24:56 2024
Timers Off: Thu Aug 15 15:24:56 2024

Wall Time:        1.81 seconds

                                                       Time (seconds)

Wall Time:        0.80 seconds

Timers Off: Thu Aug 15 15:24:56 2024
Module                                       User      System        Wall        Calls
                                                       Time (seconds)

--------------------------------------------------------------------------------------

Wall Time:        0.79 seconds

Module                                       User      System        Wall        Calls

**************************************************************************************
                                                       Time (seconds)

--------------------------------------------------------------------------------------
Module                                       User      System        Wall        Calls

**************************************************************************************

--------------------------------------------------------------------------------------

**************************************************************************************

Host: DESKTOP-G71OVQ2

Timers On : Thu Aug 15 15:24:54 2024
Timers Off: Thu Aug 15 15:24:56 2024

Wall Time:        2.57 seconds

                                                       Time (seconds)
Module                                       User      System        Wall        Calls

--------------------------------------------------------------------------------------

**************************************************************************************

Host: DESKTOP-G71OVQ2

Timers On : Thu Aug 15 15:24:55 2024
Timers Off: Thu Aug 15 15:24:56 2024

Wall Time:        1.79 seconds

                                                       Time (seconds)
Module                                       User      System        Wall        Calls

--------------------------------------------------------------------------------------

**************************************************************************************

Host: DESKTOP-G71OVQ2

Timers On : Thu Aug 15 15:24:56 2024
Timers Off: Thu Aug 15 15:24:56 2024


Wall Time:        0.69 seconds

                                                       Time (seconds)
Host: DESKTOP-G71OVQ2
Module                                       User      System        Wall        Calls


--------------------------------------------------------------------------------------

**************************************************************************************
Timers On : Thu Aug 15 15:24:54 2024
Timers Off: Thu Aug 15 15:24:56 2024

Wall Time:        2.69 seconds

                                                       Time (seconds)
Module                                       User      System        Wall        Calls

--------------------------------------------------------------------------------------

**************************************************************************************

Host: DESKTOP-G71OVQ2

Timers On : Thu Aug 15 15:24:56 2024
Timers Off: Thu Aug 15 15:24:56 2024

Wall Time:        0.76 seconds

                                                       Time (seconds)
Module                                       User      System        Wall        Calls

--------------------------------------------------------------------------------------

**************************************************************************************

Host: DESKTOP-G71OVQ2

Timers On : Thu Aug 15 15:24:56 2024
Timers Off: Thu Aug 15 15:24:56 2024

Wall Time:        0.69 seconds

                                                       Time (seconds)
Module                                       User      System        Wall        Calls

--------------------------------------------------------------------------------------

**************************************************************************************


Host: DESKTOP-G71OVQ2

Host: DESKTOP-G71OVQ2

Timers On : Thu Aug 15 15:24:54 2024
Timers Off: Thu Aug 15 15:24:56 2024

Wall Time:        2.39 seconds

                                                       Time (seconds)
Module                                       User      System        Wall        Calls

--------------------------------------------------------------------------------------

**************************************************************************************
Timers On : Thu Aug 15 15:24:56 2024
Timers Off: Thu Aug 15 15:24:56 2024

Wall Time:        0.79 seconds

                                                       Time (seconds)
Module                                       User      System        Wall        Calls

--------------------------------------------------------------------------------------

**************************************************************************************

Host: DESKTOP-G71OVQ2

Timers On : Thu Aug 15 15:24:54 2024
Timers Off: Thu Aug 15 15:24:56 2024

Wall Time:        2.50 seconds

                                                       Time (seconds)
Module                                       User      System        Wall        Calls


--------------------------------------------------------------------------------------

**************************************************************************************
Host: DESKTOP-G71OVQ2


Timers On : Thu Aug 15 15:24:56 2024
Host: DESKTOP-G71OVQ2

Timers Off: Thu Aug 15 15:24:56 2024

Wall Time:        0.75 seconds

Timers On : Thu Aug 15 15:24:55 2024
                                                       Time (seconds)
Timers Off: Thu Aug 15 15:24:56 2024
Module                                       User      System        Wall        Calls

Wall Time:        1.58 seconds

                                                       Time (seconds)

--------------------------------------------------------------------------------------
Module                                       User      System        Wall        Calls

**************************************************************************************

--------------------------------------------------------------------------------------

**************************************************************************************

Host: DESKTOP-G71OVQ2

Timers On : Thu Aug 15 15:24:53 2024
Timers Off: Thu Aug 15 15:24:56 2024

Wall Time:        3.01 seconds

                                                       Time (seconds)
Module                                       User      System        Wall        Calls

--------------------------------------------------------------------------------------

**************************************************************************************

Host: DESKTOP-G71OVQ2


Host: DESKTOP-G71OVQ2

Timers On : Thu Aug 15 15:24:54 2024
Timers Off: Thu Aug 15 15:24:56 2024
Timers On : Thu Aug 15 15:24:56 2024

Wall Time:        2.54 seconds

                                                       Time (seconds)
Timers Off: Thu Aug 15 15:24:56 2024
Module                                       User      System        Wall        Calls

--------------------------------------------------------------------------------------

Wall Time:        0.64 seconds


**************************************************************************************
                                                       Time (seconds)
Module                                       User      System        Wall        Calls

--------------------------------------------------------------------------------------

**************************************************************************************

Host: DESKTOP-G71OVQ2


Host: DESKTOP-G71OVQ2

Timers On : Thu Aug 15 15:24:53 2024
Timers Off: Thu Aug 15 15:24:56 2024

Wall Time:        3.03 seconds

Timers On : Thu Aug 15 15:24:55 2024
                                                       Time (seconds)
Module                                       User      System        Wall        Calls

--------------------------------------------------------------------------------------

**************************************************************************************
Timers Off: Thu Aug 15 15:24:56 2024

Wall Time:        1.50 seconds

                                                       Time (seconds)
Module                                       User      System        Wall        Calls

--------------------------------------------------------------------------------------

**************************************************************************************
