

Host: DESKTOP-G71OVQ2

Host: DESKTOP-G71OVQ2


Timers On : Thu Aug 15 15:24:46 2024
Timers On : Thu Aug 15 15:24:46 2024
Host: DESKTOP-G71OVQ2
Timers Off: Thu Aug 15 15:24:49 2024

Timers Off: Thu Aug 15 15:24:49 2024

Wall Time:        3.10 seconds

                                                       Time (seconds)

Wall Time:        3.13 seconds

Module                                       User      System        Wall        Calls
                                                       Time (seconds)

--------------------------------------------------------------------------------------
Timers On : Thu Aug 15 15:24:46 2024
Module                                       User      System        Wall        Calls

**************************************************************************************
Timers Off: Thu Aug 15 15:24:49 2024

--------------------------------------------------------------------------------------

Wall Time:        3.08 seconds


**************************************************************************************
                                                       Time (seconds)

Module                                       User      System        Wall        Calls

--------------------------------------------------------------------------------------
Host: DESKTOP-G71OVQ2

**************************************************************************************

Timers On : Thu Aug 15 15:24:46 2024

Timers Off: Thu Aug 15 15:24:49 2024
Host: DESKTOP-G71OVQ2

Wall Time:        3.09 seconds


                                                       Time (seconds)
Module                                       User      System        Wall        Calls

--------------------------------------------------------------------------------------

**************************************************************************************
Timers On : Thu Aug 15 15:24:46 2024

Timers Off: Thu Aug 15 15:24:49 2024
Host: DESKTOP-G71OVQ2

Wall Time:        3.18 seconds


                                                       Time (seconds)

Module                                       User      System        Wall        Calls

--------------------------------------------------------------------------------------
Timers On : Thu Aug 15 15:24:46 2024
Host: DESKTOP-G71OVQ2

**************************************************************************************

Timers Off: Thu Aug 15 15:24:49 2024

Wall Time:        3.11 seconds

                                                       Time (seconds)
Module                                       User      System        Wall        Calls
Timers On : Thu Aug 15 15:24:46 2024

--------------------------------------------------------------------------------------

**************************************************************************************
Timers Off: Thu Aug 15 15:24:49 2024

Wall Time:        3.09 seconds

                                                       Time (seconds)
Module                                       User      System        Wall        Calls

--------------------------------------------------------------------------------------

**************************************************************************************

Host: DESKTOP-G71OVQ2

Timers On : Thu Aug 15 15:24:46 2024
Timers Off: Thu Aug 15 15:24:49 2024

Wall Time:        3.15 seconds


                                                       Time (seconds)
Module                                       User      System        Wall        Calls
Host: DESKTOP-G71OVQ2


--------------------------------------------------------------------------------------

**************************************************************************************
Timers On : Thu Aug 15 15:24:46 2024
Timers Off: Thu Aug 15 15:24:49 2024

Wall Time:        3.16 seconds

                                                       Time (seconds)
Module                                       User      System        Wall        Calls

--------------------------------------------------------------------------------------

**************************************************************************************

Host: DESKTOP-G71OVQ2

Timers On : Thu Aug 15 15:24:46 2024
Timers Off: Thu Aug 15 15:24:49 2024

Wall Time:        3.13 seconds

                                                       Time (seconds)
Module                                       User      System        Wall        Calls

--------------------------------------------------------------------------------------

**************************************************************************************

Host: DESKTOP-G71OVQ2


Timers On : Thu Aug 15 15:24:46 2024
Host: DESKTOP-G71OVQ2
Timers Off: Thu Aug 15 15:24:49 2024


Wall Time:        3.14 seconds

                                                       Time (seconds)

Module                                       User      System        Wall        Calls
Timers On : Thu Aug 15 15:24:46 2024
Host: DESKTOP-G71OVQ2

--------------------------------------------------------------------------------------


**************************************************************************************
Timers Off: Thu Aug 15 15:24:49 2024


Wall Time:        3.15 seconds

Timers On : Thu Aug 15 15:24:46 2024
                                                       Time (seconds)
Host: DESKTOP-G71OVQ2
Module                                       User      System        Wall        Calls


--------------------------------------------------------------------------------------
Timers Off: Thu Aug 15 15:24:49 2024

**************************************************************************************
Timers On : Thu Aug 15 15:24:46 2024

Wall Time:        3.09 seconds

Timers Off: Thu Aug 15 15:24:49 2024
                                                       Time (seconds)

Wall Time:        3.14 seconds

                                                       Time (seconds)
Module                                       User      System        Wall        Calls
Module                                       User      System        Wall        Calls

--------------------------------------------------------------------------------------

--------------------------------------------------------------------------------------

**************************************************************************************

**************************************************************************************




Host: DESKTOP-G71OVQ2
Host: DESKTOP-G71OVQ2
Host: DESKTOP-G71OVQ2

Host: DESKTOP-G71OVQ2



Timers On : Thu Aug 15 15:24:46 2024
Timers On : Thu Aug 15 15:24:46 2024
Timers On : Thu Aug 15 15:24:46 2024
Timers On : Thu Aug 15 15:24:46 2024

Timers Off: Thu Aug 15 15:24:49 2024
Timers Off: Thu Aug 15 15:24:49 2024
Timers Off: Thu Aug 15 15:24:49 2024
Timers Off: Thu Aug 15 15:24:49 2024





Host: DESKTOP-G71OVQ2

Wall Time:        3.21 seconds


Wall Time:        3.19 seconds


Wall Time:        3.20 seconds





Wall Time:        3.11 seconds






Host: DESKTOP-G71OVQ2
Host: DESKTOP-G71OVQ2

Host: DESKTOP-G71OVQ2


                                                       Time (seconds)
Host: DESKTOP-G71OVQ2
Host: DESKTOP-G71OVQ2
                                                       Time (seconds)
Host: DESKTOP-G71OVQ2
Host: DESKTOP-G71OVQ2
Host: DESKTOP-G71OVQ2
Host: DESKTOP-G71OVQ2
Host: DESKTOP-G71OVQ2

Host: DESKTOP-G71OVQ2





Module                                       User      System        Wall        Calls
Host: DESKTOP-G71OVQ2

Host: DESKTOP-G71OVQ2


Timers On : Thu Aug 15 15:24:46 2024
Module                                       User      System        Wall        Calls




Host: DESKTOP-G71OVQ2
Host: DESKTOP-G71OVQ2

Timers On : Thu Aug 15 15:24:46 2024

--------------------------------------------------------------------------------------

Timers On : Thu Aug 15 15:24:46 2024

Timers On : Thu Aug 15 15:24:46 2024
Timers On : Thu Aug 15 15:24:46 2024
Timers On : Thu Aug 15 15:24:46 2024

--------------------------------------------------------------------------------------
Timers Off: Thu Aug 15 15:24:49 2024
Timers On : Thu Aug 15 15:24:46 2024
Timers On : Thu Aug 15 15:24:46 2024
Timers On : Thu Aug 15 15:24:46 2024
Timers On : Thu Aug 15 15:24:46 2024
Timers On : Thu Aug 15 15:24:46 2024
Timers On : Thu Aug 15 15:24:46 2024



**************************************************************************************
Host: DESKTOP-G71OVQ2
Timers Off: Thu Aug 15 15:24:49 2024
Timers Off: Thu Aug 15 15:24:49 2024
Timers Off: Thu Aug 15 15:24:49 2024
Timers Off: Thu Aug 15 15:24:49 2024
Timers Off: Thu Aug 15 15:24:49 2024
Timers On : Thu Aug 15 15:24:46 2024
Timers On : Thu Aug 15 15:24:46 2024

**************************************************************************************
Timers Off: Thu Aug 15 15:24:49 2024

Wall Time:        3.12 seconds

Timers Off: Thu Aug 15 15:24:49 2024
Timers Off: Thu Aug 15 15:24:49 2024
Timers Off: Thu Aug 15 15:24:49 2024
Timers Off: Thu Aug 15 15:24:49 2024
Timers Off: Thu Aug 15 15:24:49 2024
Timers On : Thu Aug 15 15:24:46 2024

Timers Off: Thu Aug 15 15:24:49 2024

Wall Time:        3.12 seconds


Wall Time:        3.13 seconds


Wall Time:        3.11 seconds


Wall Time:        3.10 seconds


Wall Time:        3.10 seconds

Timers Off: Thu Aug 15 15:24:49 2024
                                                       Time (seconds)

Wall Time:        3.08 seconds

Timers On : Thu Aug 15 15:24:46 2024

Wall Time:        3.10 seconds

                                                       Time (seconds)

Wall Time:        3.12 seconds

                                                       Time (seconds)

Wall Time:        3.11 seconds


Wall Time:        3.11 seconds

                                                       Time (seconds)

Wall Time:        3.09 seconds


Wall Time:        3.09 seconds

Timers Off: Thu Aug 15 15:24:49 2024
                                                       Time (seconds)
                                                       Time (seconds)
Timers On : Thu Aug 15 15:24:46 2024
                                                       Time (seconds)
                                                       Time (seconds)
Timers Off: Thu Aug 15 15:24:49 2024
                                                       Time (seconds)

Wall Time:        3.11 seconds

Module                                       User      System        Wall        Calls
                                                       Time (seconds)
Module                                       User      System        Wall        Calls
                                                       Time (seconds)
Module                                       User      System        Wall        Calls
                                                       Time (seconds)
                                                       Time (seconds)
Module                                       User      System        Wall        Calls

Wall Time:        3.12 seconds

Module                                       User      System        Wall        Calls


--------------------------------------------------------------------------------------
Module                                       User      System        Wall        Calls
Module                                       User      System        Wall        Calls

--------------------------------------------------------------------------------------
Module                                       User      System        Wall        Calls
                                                       Time (seconds)
Module                                       User      System        Wall        Calls
Timers Off: Thu Aug 15 15:24:49 2024

--------------------------------------------------------------------------------------
Module                                       User      System        Wall        Calls
Module                                       User      System        Wall        Calls

Wall Time:        3.11 seconds

Module                                       User      System        Wall        Calls
Module                                       User      System        Wall        Calls

--------------------------------------------------------------------------------------

**************************************************************************************

--------------------------------------------------------------------------------------

--------------------------------------------------------------------------------------
                                                       Time (seconds)

**************************************************************************************
Host: DESKTOP-G71OVQ2

--------------------------------------------------------------------------------------

**************************************************************************************
Module                                       User      System        Wall        Calls

Wall Time:        3.12 seconds


--------------------------------------------------------------------------------------

--------------------------------------------------------------------------------------

--------------------------------------------------------------------------------------
                                                       Time (seconds)

--------------------------------------------------------------------------------------

--------------------------------------------------------------------------------------

--------------------------------------------------------------------------------------

**************************************************************************************

**************************************************************************************


**************************************************************************************

**************************************************************************************

                                                       Time (seconds)

--------------------------------------------------------------------------------------

**************************************************************************************

**************************************************************************************
Module                                       User      System        Wall        Calls

**************************************************************************************
Module                                       User      System        Wall        Calls

**************************************************************************************

**************************************************************************************

**************************************************************************************

**************************************************************************************
Module                                       User      System        Wall        Calls
Host: DESKTOP-G71OVQ2

--------------------------------------------------------------------------------------

--------------------------------------------------------------------------------------
Timers On : Thu Aug 15 15:24:46 2024

--------------------------------------------------------------------------------------


**************************************************************************************

**************************************************************************************

**************************************************************************************
Timers Off: Thu Aug 15 15:24:49 2024
Host: DESKTOP-G71OVQ2

Wall Time:        3.19 seconds

Timers On : Thu Aug 15 15:24:46 2024
                                                       Time (seconds)
Timers Off: Thu Aug 15 15:24:49 2024

Module                                       User      System        Wall        Calls


--------------------------------------------------------------------------------------

Wall Time:        3.26 seconds

Host: DESKTOP-G71OVQ2

**************************************************************************************


                                                       Time (seconds)
Timers On : Thu Aug 15 15:24:46 2024
Module                                       User      System        Wall        Calls
Timers Off: Thu Aug 15 15:24:49 2024
Host: DESKTOP-G71OVQ2

--------------------------------------------------------------------------------------


Wall Time:        3.08 seconds


**************************************************************************************
Timers On : Thu Aug 15 15:24:46 2024
                                                       Time (seconds)
Timers On : Thu Aug 15 15:24:46 2024
Module                                       User      System        Wall        Calls
Timers Off: Thu Aug 15 15:24:49 2024
Timers Off: Thu Aug 15 15:24:49 2024

--------------------------------------------------------------------------------------

Wall Time:        3.11 seconds


Wall Time:        3.15 seconds

                                                       Time (seconds)
                                                       Time (seconds)

**************************************************************************************
Module                                       User      System        Wall        Calls
Module                                       User      System        Wall        Calls

--------------------------------------------------------------------------------------

**************************************************************************************


--------------------------------------------------------------------------------------
Host: DESKTOP-G71OVQ2

Host: DESKTOP-G71OVQ2

**************************************************************************************
Timers On : Thu Aug 15 15:24:46 2024
Timers Off: Thu Aug 15 15:24:49 2024


Wall Time:        3.09 seconds

                                                       Time (seconds)
Module                                       User      System        Wall        Calls

--------------------------------------------------------------------------------------
Timers On : Thu Aug 15 15:24:46 2024

**************************************************************************************
                                                       Time (seconds)
Timers Off: Thu Aug 15 15:24:49 2024
Module                                       User      System        Wall        Calls

--------------------------------------------------------------------------------------

**************************************************************************************


Wall Time:        3.12 seconds


                                                       Time (seconds)
Host: DESKTOP-G71OVQ2

Module                                       User      System        Wall        Calls

--------------------------------------------------------------------------------------
Host: DESKTOP-G71OVQ2

**************************************************************************************


Timers On : Thu Aug 15 15:24:46 2024
Timers On : Thu Aug 15 15:24:46 2024
Timers Off: Thu Aug 15 15:24:49 2024
Timers Off: Thu Aug 15 15:24:49 2024

Wall Time:        3.12 seconds

                                                       Time (seconds)

Wall Time:        3.08 seconds

Host: DESKTOP-G71OVQ2
Module                                       User      System        Wall        Calls
                                                       Time (seconds)


--------------------------------------------------------------------------------------
Module                                       User      System        Wall        Calls

**************************************************************************************

--------------------------------------------------------------------------------------

**************************************************************************************
Timers On : Thu Aug 15 15:24:46 2024
Timers Off: Thu Aug 15 15:24:49 2024

Wall Time:        3.14 seconds

                                                       Time (seconds)
Module                                       User      System        Wall        Calls

--------------------------------------------------------------------------------------

**************************************************************************************
                                                       Time (seconds)
Module                                       User      System        Wall        Calls

--------------------------------------------------------------------------------------

**************************************************************************************

Host: DESKTOP-G71OVQ2

Timers On : Thu Aug 15 15:24:46 2024
Timers Off: Thu Aug 15 15:24:49 2024

Wall Time:        3.10 seconds

                                                       Time (seconds)
Module                                       User      System        Wall        Calls

--------------------------------------------------------------------------------------

**************************************************************************************

Host: DESKTOP-G71OVQ2

Timers On : Thu Aug 15 15:24:55 2024
Timers Off: Thu Aug 15 15:24:56 2024

Wall Time:        1.57 seconds

                                                       Time (seconds)
Module                                       User      System        Wall        Calls

--------------------------------------------------------------------------------------

**************************************************************************************

Host: DESKTOP-G71OVQ2

Timers On : Thu Aug 15 15:24:54 2024
Timers Off: Thu Aug 15 15:24:56 2024

Wall Time:        2.73 seconds

                                                       Time (seconds)
Module                                       User      System        Wall        Calls

--------------------------------------------------------------------------------------

**************************************************************************************

Host: DESKTOP-G71OVQ2

Timers On : Thu Aug 15 15:24:55 2024
Timers Off: Thu Aug 15 15:24:56 2024

Wall Time:        1.59 seconds

                                                       Time (seconds)
Module                                       User      System        Wall        Calls

--------------------------------------------------------------------------------------

**************************************************************************************

Host: DESKTOP-G71OVQ2

Timers On : Thu Aug 15 15:24:54 2024
Timers Off: Thu Aug 15 15:24:56 2024


Wall Time:        2.42 seconds

                                                       Time (seconds)
Host: DESKTOP-G71OVQ2
Module                                       User      System        Wall        Calls


--------------------------------------------------------------------------------------

**************************************************************************************
Timers On : Thu Aug 15 15:24:54 2024

Timers Off: Thu Aug 15 15:24:56 2024
Host: DESKTOP-G71OVQ2

Wall Time:        2.46 seconds


                                                       Time (seconds)
Module                                       User      System        Wall        Calls

--------------------------------------------------------------------------------------

**************************************************************************************
Timers On : Thu Aug 15 15:24:55 2024
Timers Off: Thu Aug 15 15:24:56 2024

Wall Time:        1.46 seconds

                                                       Time (seconds)

Module                                       User      System        Wall        Calls

--------------------------------------------------------------------------------------
Host: DESKTOP-G71OVQ2

**************************************************************************************

Timers On : Thu Aug 15 15:24:54 2024
Timers Off: Thu Aug 15 15:24:56 2024


Wall Time:        2.81 seconds

                                                       Time (seconds)
Host: DESKTOP-G71OVQ2
Module                                       User      System        Wall        Calls


--------------------------------------------------------------------------------------

**************************************************************************************

Timers On : Thu Aug 15 15:24:55 2024
Host: DESKTOP-G71OVQ2

Timers Off: Thu Aug 15 15:24:56 2024


Wall Time:        1.26 seconds

Timers On : Thu Aug 15 15:24:55 2024
                                                       Time (seconds)
Host: DESKTOP-G71OVQ2
Timers Off: Thu Aug 15 15:24:56 2024
Module                                       User      System        Wall        Calls


Wall Time:        1.10 seconds


--------------------------------------------------------------------------------------
                                                       Time (seconds)

**************************************************************************************
Module                                       User      System        Wall        Calls

--------------------------------------------------------------------------------------

**************************************************************************************
Timers On : Thu Aug 15 15:24:55 2024
Timers Off: Thu Aug 15 15:24:56 2024

Wall Time:        1.27 seconds

                                                       Time (seconds)
Module                                       User      System        Wall        Calls

--------------------------------------------------------------------------------------

**************************************************************************************

Host: DESKTOP-G71OVQ2

Timers On : Thu Aug 15 15:24:54 2024
Timers Off: Thu Aug 15 15:24:56 2024

Wall Time:        2.31 seconds

                                                       Time (seconds)
Module                                       User      System        Wall        Calls

--------------------------------------------------------------------------------------

**************************************************************************************

Host: DESKTOP-G71OVQ2

Timers On : Thu Aug 15 15:24:54 2024
Timers Off: Thu Aug 15 15:24:56 2024


Wall Time:        2.19 seconds

                                                       Time (seconds)
Module                                       User      System        Wall        Calls

--------------------------------------------------------------------------------------
Host: DESKTOP-G71OVQ2

**************************************************************************************

Timers On : Thu Aug 15 15:24:53 2024
Timers Off: Thu Aug 15 15:24:56 2024

Wall Time:        3.41 seconds

                                                       Time (seconds)
Module                                       User      System        Wall        Calls

--------------------------------------------------------------------------------------

**************************************************************************************

Host: DESKTOP-G71OVQ2


Timers On : Thu Aug 15 15:24:55 2024
Host: DESKTOP-G71OVQ2

Timers Off: Thu Aug 15 15:24:56 2024

Wall Time:        1.29 seconds

                                                       Time (seconds)
Timers On : Thu Aug 15 15:24:55 2024
Module                                       User      System        Wall        Calls

--------------------------------------------------------------------------------------
Timers Off: Thu Aug 15 15:24:56 2024

**************************************************************************************

Wall Time:        1.19 seconds

                                                       Time (seconds)
Module                                       User      System        Wall        Calls

--------------------------------------------------------------------------------------

**************************************************************************************

Host: DESKTOP-G71OVQ2

Timers On : Thu Aug 15 15:24:54 2024

Timers Off: Thu Aug 15 15:24:56 2024
Host: DESKTOP-G71OVQ2


Wall Time:        2.26 seconds

                                                       Time (seconds)
Timers On : Thu Aug 15 15:24:55 2024
Module                                       User      System        Wall        Calls
Timers Off: Thu Aug 15 15:24:56 2024

--------------------------------------------------------------------------------------


**************************************************************************************

Wall Time:        1.07 seconds

                                                       Time (seconds)
Module                                       User      System        Wall        Calls
Host: DESKTOP-G71OVQ2

--------------------------------------------------------------------------------------


**************************************************************************************
Timers On : Thu Aug 15 15:24:54 2024
Timers Off: Thu Aug 15 15:24:56 2024

Wall Time:        2.84 seconds

                                                       Time (seconds)
Module                                       User      System        Wall        Calls

--------------------------------------------------------------------------------------

**************************************************************************************


Host: DESKTOP-G71OVQ2

Timers On : Thu Aug 15 15:24:54 2024
Host: DESKTOP-G71OVQ2
Timers Off: Thu Aug 15 15:24:56 2024


Wall Time:        2.33 seconds

                                                       Time (seconds)
Module                                       User      System        Wall        Calls

--------------------------------------------------------------------------------------

**************************************************************************************
Timers On : Thu Aug 15 15:24:55 2024

Timers Off: Thu Aug 15 15:24:56 2024
Host: DESKTOP-G71OVQ2

Wall Time:        1.05 seconds


                                                       Time (seconds)
Module                                       User      System        Wall        Calls

--------------------------------------------------------------------------------------

**************************************************************************************
Timers On : Thu Aug 15 15:24:54 2024
Timers Off: Thu Aug 15 15:24:56 2024

Wall Time:        2.12 seconds

                                                       Time (seconds)
Module                                       User      System        Wall        Calls

--------------------------------------------------------------------------------------

**************************************************************************************

Host: DESKTOP-G71OVQ2

Timers On : Thu Aug 15 15:24:53 2024
Timers Off: Thu Aug 15 15:24:56 2024


Wall Time:        3.50 seconds

                                                       Time (seconds)
Host: DESKTOP-G71OVQ2
Module                                       User      System        Wall        Calls


--------------------------------------------------------------------------------------

**************************************************************************************
Timers On : Thu Aug 15 15:24:54 2024
Timers Off: Thu Aug 15 15:24:56 2024

Wall Time:        2.51 seconds

                                                       Time (seconds)
Module                                       User      System        Wall        Calls

--------------------------------------------------------------------------------------

**************************************************************************************

Host: DESKTOP-G71OVQ2

Timers On : Thu Aug 15 15:24:54 2024
Timers Off: Thu Aug 15 15:24:56 2024

Wall Time:        2.16 seconds

                                                       Time (seconds)
Module                                       User      System        Wall        Calls

--------------------------------------------------------------------------------------

**************************************************************************************

Host: DESKTOP-G71OVQ2

Timers On : Thu Aug 15 15:24:54 2024

Timers Off: Thu Aug 15 15:24:56 2024
Host: DESKTOP-G71OVQ2


Wall Time:        2.82 seconds

                                                       Time (seconds)
Module                                       User      System        Wall        Calls
Timers On : Thu Aug 15 15:24:54 2024

--------------------------------------------------------------------------------------

**************************************************************************************
Timers Off: Thu Aug 15 15:24:56 2024

Wall Time:        2.09 seconds

                                                       Time (seconds)
Module                                       User      System        Wall        Calls

--------------------------------------------------------------------------------------

**************************************************************************************

Host: DESKTOP-G71OVQ2

Timers On : Thu Aug 15 15:24:53 2024
Timers Off: Thu Aug 15 15:24:56 2024

Wall Time:        3.04 seconds

                                                       Time (seconds)
Module                                       User      System        Wall        Calls

--------------------------------------------------------------------------------------


**************************************************************************************
Host: DESKTOP-G71OVQ2

Timers On : Thu Aug 15 15:24:55 2024
Timers Off: Thu Aug 15 15:24:56 2024

Wall Time:        0.97 seconds

                                                       Time (seconds)
Module                                       User      System        Wall        Calls

--------------------------------------------------------------------------------------

**************************************************************************************

Host: DESKTOP-G71OVQ2

Timers On : Thu Aug 15 15:24:54 2024
Timers Off: Thu Aug 15 15:24:56 2024


Wall Time:        2.73 seconds

                                                       Time (seconds)
Host: DESKTOP-G71OVQ2
Module                                       User      System        Wall        Calls


--------------------------------------------------------------------------------------

**************************************************************************************

Timers On : Thu Aug 15 15:24:54 2024
Host: DESKTOP-G71OVQ2
Timers Off: Thu Aug 15 15:24:56 2024


Wall Time:        2.27 seconds

                                                       Time (seconds)
Module                                       User      System        Wall        Calls

--------------------------------------------------------------------------------------

**************************************************************************************
Timers On : Thu Aug 15 15:24:55 2024
Timers Off: Thu Aug 15 15:24:56 2024

Wall Time:        1.00 seconds

                                                       Time (seconds)
Module                                       User      System        Wall        Calls

--------------------------------------------------------------------------------------

**************************************************************************************

Host: DESKTOP-G71OVQ2

Timers On : Thu Aug 15 15:24:53 2024
Timers Off: Thu Aug 15 15:24:56 2024


Wall Time:        3.16 seconds

                                                       Time (seconds)
Host: DESKTOP-G71OVQ2
Module                                       User      System        Wall        Calls


--------------------------------------------------------------------------------------

**************************************************************************************
Timers On : Thu Aug 15 15:24:56 2024
Timers Off: Thu Aug 15 15:24:56 2024

Wall Time:        0.86 seconds

                                                       Time (seconds)
Module                                       User      System        Wall        Calls


--------------------------------------------------------------------------------------

**************************************************************************************
Host: DESKTOP-G71OVQ2

Timers On : Thu Aug 15 15:24:54 2024
Timers Off: Thu Aug 15 15:24:56 2024

Wall Time:        1.92 seconds

                                                       Time (seconds)
Module                                       User      System        Wall        Calls

--------------------------------------------------------------------------------------

**************************************************************************************

Host: DESKTOP-G71OVQ2

Timers On : Thu Aug 15 15:24:54 2024
Timers Off: Thu Aug 15 15:24:56 2024

Wall Time:        2.53 seconds

                                                       Time (seconds)

Module                                       User      System        Wall        Calls

--------------------------------------------------------------------------------------

**************************************************************************************
Host: DESKTOP-G71OVQ2

Timers On : Thu Aug 15 15:24:55 2024
Timers Off: Thu Aug 15 15:24:56 2024

Wall Time:        0.95 seconds

                                                       Time (seconds)
Module                                       User      System        Wall        Calls

--------------------------------------------------------------------------------------

**************************************************************************************

Host: DESKTOP-G71OVQ2

Timers On : Thu Aug 15 15:24:53 2024
Timers Off: Thu Aug 15 15:24:56 2024

Wall Time:        3.21 seconds

                                                       Time (seconds)
Module                                       User      System        Wall        Calls

--------------------------------------------------------------------------------------

**************************************************************************************

Host: DESKTOP-G71OVQ2

Timers On : Thu Aug 15 15:24:54 2024
Timers Off: Thu Aug 15 15:24:56 2024

Wall Time:        1.97 seconds

                                                       Time (seconds)
Module                                       User      System        Wall        Calls

--------------------------------------------------------------------------------------

**************************************************************************************

Host: DESKTOP-G71OVQ2

Timers On : Thu Aug 15 15:24:56 2024
Timers Off: Thu Aug 15 15:24:56 2024

Wall Time:        0.80 seconds

                                                       Time (seconds)
Module                                       User      System        Wall        Calls

--------------------------------------------------------------------------------------

**************************************************************************************

Host: DESKTOP-G71OVQ2

Timers On : Thu Aug 15 15:24:55 2024
Timers Off: Thu Aug 15 15:24:56 2024

Wall Time:        1.86 seconds

                                                       Time (seconds)
Module                                       User      System        Wall        Calls

--------------------------------------------------------------------------------------

**************************************************************************************

Host: DESKTOP-G71OVQ2

Timers On : Thu Aug 15 15:24:54 2024
Timers Off: Thu Aug 15 15:24:56 2024

Wall Time:        2.36 seconds

                                                       Time (seconds)
Module                                       User      System        Wall        Calls

--------------------------------------------------------------------------------------

**************************************************************************************


Host: DESKTOP-G71OVQ2

Timers On : Thu Aug 15 15:24:55 2024
Timers Off: Thu Aug 15 15:24:56 2024

Wall Time:        1.81 seconds

                                                       Time (seconds)
Module                                       User      System        Wall        Calls

--------------------------------------------------------------------------------------
Host: DESKTOP-G71OVQ2

**************************************************************************************

Timers On : Thu Aug 15 15:24:56 2024
Timers Off: Thu Aug 15 15:24:56 2024

Wall Time:        0.79 seconds

                                                       Time (seconds)
Module                                       User      System        Wall        Calls

--------------------------------------------------------------------------------------

**************************************************************************************

Host: DESKTOP-G71OVQ2

Timers On : Thu Aug 15 15:24:54 2024
Timers Off: Thu Aug 15 15:24:56 2024

Wall Time:        2.61 seconds

                                                       Time (seconds)
Module                                       User      System        Wall        Calls

--------------------------------------------------------------------------------------

**************************************************************************************

Host: DESKTOP-G71OVQ2

Timers On : Thu Aug 15 15:24:54 2024
Timers Off: Thu Aug 15 15:24:56 2024

Wall Time:        2.86 seconds

                                                       Time (seconds)
Module                                       User      System        Wall        Calls

--------------------------------------------------------------------------------------

**************************************************************************************

Host: DESKTOP-G71OVQ2


Host: DESKTOP-G71OVQ2

Host: DESKTOP-G71OVQ2


Timers On : Thu Aug 15 15:24:55 2024
Timers On : Thu Aug 15 15:24:56 2024
Timers Off: Thu Aug 15 15:24:56 2024
Timers On : Thu Aug 15 15:24:56 2024
Timers Off: Thu Aug 15 15:24:56 2024

Wall Time:        1.81 seconds

                                                       Time (seconds)

Wall Time:        0.80 seconds

Timers Off: Thu Aug 15 15:24:56 2024
Module                                       User      System        Wall        Calls
                                                       Time (seconds)

--------------------------------------------------------------------------------------

Wall Time:        0.79 seconds

Module                                       User      System        Wall        Calls

**************************************************************************************
                                                       Time (seconds)

--------------------------------------------------------------------------------------
Module                                       User      System        Wall        Calls

**************************************************************************************

--------------------------------------------------------------------------------------

**************************************************************************************

Host: DESKTOP-G71OVQ2

Timers On : Thu Aug 15 15:24:54 2024
Timers Off: Thu Aug 15 15:24:56 2024

Wall Time:        2.57 seconds

                                                       Time (seconds)
Module                                       User      System        Wall        Calls

--------------------------------------------------------------------------------------

**************************************************************************************

Host: DESKTOP-G71OVQ2

Timers On : Thu Aug 15 15:24:55 2024
Timers Off: Thu Aug 15 15:24:56 2024

Wall Time:        1.79 seconds

                                                       Time (seconds)
Module                                       User      System        Wall        Calls

--------------------------------------------------------------------------------------

**************************************************************************************

Host: DESKTOP-G71OVQ2

Timers On : Thu Aug 15 15:24:56 2024
Timers Off: Thu Aug 15 15:24:56 2024


Wall Time:        0.69 seconds

                                                       Time (seconds)
Host: DESKTOP-G71OVQ2
Module                                       User      System        Wall        Calls


--------------------------------------------------------------------------------------

**************************************************************************************
Timers On : Thu Aug 15 15:24:54 2024
Timers Off: Thu Aug 15 15:24:56 2024

Wall Time:        2.69 seconds

                                                       Time (seconds)
Module                                       User      System        Wall        Calls

--------------------------------------------------------------------------------------

**************************************************************************************

Host: DESKTOP-G71OVQ2

Timers On : Thu Aug 15 15:24:56 2024
Timers Off: Thu Aug 15 15:24:56 2024

Wall Time:        0.76 seconds

                                                       Time (seconds)
Module                                       User      System        Wall        Calls

--------------------------------------------------------------------------------------

**************************************************************************************

Host: DESKTOP-G71OVQ2

Timers On : Thu Aug 15 15:24:56 2024
Timers Off: Thu Aug 15 15:24:56 2024

Wall Time:        0.69 seconds

                                                       Time (seconds)
Module                                       User      System        Wall        Calls

--------------------------------------------------------------------------------------

**************************************************************************************


Host: DESKTOP-G71OVQ2

Host: DESKTOP-G71OVQ2

Timers On : Thu Aug 15 15:24:54 2024
Timers Off: Thu Aug 15 15:24:56 2024

Wall Time:        2.39 seconds

                                                       Time (seconds)
Module                                       User      System        Wall        Calls

--------------------------------------------------------------------------------------

**************************************************************************************
Timers On : Thu Aug 15 15:24:56 2024
Timers Off: Thu Aug 15 15:24:56 2024

Wall Time:        0.79 seconds

                                                       Time (seconds)
Module                                       User      System        Wall        Calls

--------------------------------------------------------------------------------------

**************************************************************************************

Host: DESKTOP-G71OVQ2

Timers On : Thu Aug 15 15:24:54 2024
Timers Off: Thu Aug 15 15:24:56 2024

Wall Time:        2.50 seconds

                                                       Time (seconds)
Module                                       User      System        Wall        Calls


--------------------------------------------------------------------------------------

**************************************************************************************
Host: DESKTOP-G71OVQ2


Timers On : Thu Aug 15 15:24:56 2024
Host: DESKTOP-G71OVQ2

Timers Off: Thu Aug 15 15:24:56 2024

Wall Time:        0.75 seconds

Timers On : Thu Aug 15 15:24:55 2024
                                                       Time (seconds)
Timers Off: Thu Aug 15 15:24:56 2024
Module                                       User      System        Wall        Calls

Wall Time:        1.58 seconds

                                                       Time (seconds)

--------------------------------------------------------------------------------------
Module                                       User      System        Wall        Calls

**************************************************************************************

--------------------------------------------------------------------------------------

**************************************************************************************

Host: DESKTOP-G71OVQ2

Timers On : Thu Aug 15 15:24:53 2024
Timers Off: Thu Aug 15 15:24:56 2024

Wall Time:        3.01 seconds

                                                       Time (seconds)
Module                                       User      System        Wall        Calls

--------------------------------------------------------------------------------------

**************************************************************************************

Host: DESKTOP-G71OVQ2


Host: DESKTOP-G71OVQ2

Timers On : Thu Aug 15 15:24:54 2024
Timers Off: Thu Aug 15 15:24:56 2024
Timers On : Thu Aug 15 15:24:56 2024

Wall Time:        2.54 seconds

                                                       Time (seconds)
Timers Off: Thu Aug 15 15:24:56 2024
Module                                       User      System        Wall        Calls

--------------------------------------------------------------------------------------

Wall Time:        0.64 seconds


**************************************************************************************
                                                       Time (seconds)
Module                                       User      System        Wall        Calls

--------------------------------------------------------------------------------------

**************************************************************************************

Host: DESKTOP-G71OVQ2


Host: DESKTOP-G71OVQ2

Timers On : Thu Aug 15 15:24:53 2024
Timers Off: Thu Aug 15 15:24:56 2024

Wall Time:        3.03 seconds

Timers On : Thu Aug 15 15:24:55 2024
                                                       Time (seconds)
Module                                       User      System        Wall        Calls

--------------------------------------------------------------------------------------

**************************************************************************************
Timers Off: Thu Aug 15 15:24:56 2024

Wall Time:        1.50 seconds

                                                       Time (seconds)
Module                                       User      System        Wall        Calls

--------------------------------------------------------------------------------------

**************************************************************************************

Host: lulab


Timers On : Fri Aug 23 07:31:49 2024
Host: lulab
Timers Off: Fri Aug 23 07:31:51 2024


Wall Time:        2.43 seconds

                                                       Time (seconds)
Module                                       User      System        Wall        Calls


--------------------------------------------------------------------------------------
Timers On : Fri Aug 23 07:31:49 2024

**************************************************************************************
Timers Off: Fri Aug 23 07:31:51 2024

Wall Time:        2.38 seconds

Host: lulab
                                                       Time (seconds)

Module                                       User      System        Wall        Calls

--------------------------------------------------------------------------------------


**************************************************************************************
Timers On : Fri Aug 23 07:31:49 2024
Timers Off: Fri Aug 23 07:31:51 2024

Wall Time:        2.38 seconds

Host: lulab
                                                       Time (seconds)

Module                                       User      System        Wall        Calls

--------------------------------------------------------------------------------------



**************************************************************************************
Timers On : Fri Aug 23 07:31:49 2024
Timers Off: Fri Aug 23 07:31:51 2024
Host: lulab

Wall Time:        2.33 seconds

Host: lulab

                                                       Time (seconds)


Module                                       User      System        Wall        Calls

--------------------------------------------------------------------------------------
Timers On : Fri Aug 23 07:31:49 2024

**************************************************************************************
Host: lulab
Timers Off: Fri Aug 23 07:31:51 2024
Timers On : Fri Aug 23 07:31:49 2024


Wall Time:        2.23 seconds

                                                       Time (seconds)
Timers Off: Fri Aug 23 07:31:51 2024

Module                                       User      System        Wall        Calls
Timers On : Fri Aug 23 07:31:49 2024

Wall Time:        2.21 seconds


--------------------------------------------------------------------------------------
Timers Off: Fri Aug 23 07:31:51 2024
                                                       Time (seconds)

**************************************************************************************
Host: lulab

Wall Time:        2.33 seconds

Module                                       User      System        Wall        Calls
                                                       Time (seconds)


Module                                       User      System        Wall        Calls

--------------------------------------------------------------------------------------

**************************************************************************************

--------------------------------------------------------------------------------------

**************************************************************************************
Timers On : Fri Aug 23 07:31:49 2024
Host: lulab

Timers Off: Fri Aug 23 07:31:51 2024


Wall Time:        2.19 seconds

Timers On : Fri Aug 23 07:31:49 2024
                                                       Time (seconds)
Module                                       User      System        Wall        Calls
Timers Off: Fri Aug 23 07:31:51 2024

--------------------------------------------------------------------------------------
Host: lulab

**************************************************************************************

Wall Time:        2.33 seconds


                                                       Time (seconds)

Module                                       User      System        Wall        Calls

Timers On : Fri Aug 23 07:31:49 2024

--------------------------------------------------------------------------------------
Host: lulab
Timers Off: Fri Aug 23 07:31:51 2024

**************************************************************************************



Wall Time:        2.15 seconds

Host: lulab
                                                       Time (seconds)

Module                                       User      System        Wall        Calls


--------------------------------------------------------------------------------------
Timers On : Fri Aug 23 07:31:49 2024
Host: lulab

**************************************************************************************

Timers Off: Fri Aug 23 07:31:51 2024

Host: lulab

Wall Time:        2.10 seconds


                                                       Time (seconds)
Host: lulab
Timers On : Fri Aug 23 07:31:49 2024
Module                                       User      System        Wall        Calls


--------------------------------------------------------------------------------------
Timers Off: Fri Aug 23 07:31:51 2024

**************************************************************************************
Timers On : Fri Aug 23 07:31:49 2024

Wall Time:        1.98 seconds

Timers On : Fri Aug 23 07:31:49 2024

                                                       Time (seconds)
Timers Off: Fri Aug 23 07:31:51 2024
Timers Off: Fri Aug 23 07:31:51 2024
Module                                       User      System        Wall        Calls

Wall Time:        1.98 seconds


Wall Time:        2.04 seconds


--------------------------------------------------------------------------------------
                                                       Time (seconds)
                                                       Time (seconds)
Host: lulab

**************************************************************************************
Module                                       User      System        Wall        Calls

Module                                       User      System        Wall        Calls



--------------------------------------------------------------------------------------

--------------------------------------------------------------------------------------
Host: lulab

**************************************************************************************

**************************************************************************************
Timers On : Fri Aug 23 07:31:49 2024

Host: lulab

Timers Off: Fri Aug 23 07:31:51 2024

Timers On : Fri Aug 23 07:31:49 2024

Wall Time:        1.82 seconds

Timers Off: Fri Aug 23 07:31:51 2024
                                                       Time (seconds)

Wall Time:        2.12 seconds

Timers On : Fri Aug 23 07:31:49 2024
Module                                       User      System        Wall        Calls
                                                       Time (seconds)
Host: lulab
Timers Off: Fri Aug 23 07:31:51 2024


--------------------------------------------------------------------------------------
Module                                       User      System        Wall        Calls



Wall Time:        1.82 seconds


**************************************************************************************

--------------------------------------------------------------------------------------
                                                       Time (seconds)
Host: lulab

**************************************************************************************
Timers On : Fri Aug 23 07:31:49 2024
Module                                       User      System        Wall        Calls
Host: lulab



--------------------------------------------------------------------------------------
Timers Off: Fri Aug 23 07:31:51 2024


**************************************************************************************
Timers On : Fri Aug 23 07:31:50 2024

Wall Time:        1.96 seconds

                                                       Time (seconds)
Host: lulab
Timers Off: Fri Aug 23 07:31:51 2024
Module                                       User      System        Wall        Calls

Timers On : Fri Aug 23 07:31:50 2024


Wall Time:        1.81 seconds


--------------------------------------------------------------------------------------
Timers On : Fri Aug 23 07:31:50 2024
Timers Off: Fri Aug 23 07:31:51 2024
                                                       Time (seconds)

**************************************************************************************
Timers Off: Fri Aug 23 07:31:51 2024
Host: lulab

Wall Time:        1.70 seconds

Module                                       User      System        Wall        Calls

Wall Time:        1.72 seconds



                                                       Time (seconds)

--------------------------------------------------------------------------------------
                                                       Time (seconds)
Timers On : Fri Aug 23 07:31:49 2024

**************************************************************************************
Module                                       User      System        Wall        Calls
Module                                       User      System        Wall        Calls
Timers Off: Fri Aug 23 07:31:51 2024
Host: lulab

--------------------------------------------------------------------------------------

--------------------------------------------------------------------------------------


Wall Time:        1.81 seconds



**************************************************************************************

**************************************************************************************
                                                       Time (seconds)
Timers On : Fri Aug 23 07:31:50 2024
Module                                       User      System        Wall        Calls
Host: lulab

--------------------------------------------------------------------------------------
Timers Off: Fri Aug 23 07:31:51 2024


**************************************************************************************

Wall Time:        1.77 seconds

                                                       Time (seconds)

Module                                       User      System        Wall        Calls
Timers On : Fri Aug 23 07:31:50 2024

--------------------------------------------------------------------------------------
Timers Off: Fri Aug 23 07:31:51 2024
Host: lulab

**************************************************************************************

Wall Time:        1.78 seconds


                                                       Time (seconds)
Module                                       User      System        Wall        Calls

--------------------------------------------------------------------------------------


**************************************************************************************
Timers On : Fri Aug 23 07:31:50 2024

Timers Off: Fri Aug 23 07:31:51 2024
Host: lulab

Wall Time:        1.69 seconds


                                                       Time (seconds)
Host: lulab
Module                                       User      System        Wall        Calls


--------------------------------------------------------------------------------------

**************************************************************************************
Timers On : Fri Aug 23 07:31:50 2024
Timers On : Fri Aug 23 07:31:49 2024
Timers Off: Fri Aug 23 07:31:51 2024

Timers Off: Fri Aug 23 07:31:51 2024

Wall Time:        1.56 seconds

                                                       Time (seconds)
Module                                       User      System        Wall        Calls

Wall Time:        2.13 seconds


--------------------------------------------------------------------------------------
                                                       Time (seconds)

**************************************************************************************
Module                                       User      System        Wall        Calls
Host: lulab


--------------------------------------------------------------------------------------

**************************************************************************************

Timers On : Fri Aug 23 07:31:50 2024
Timers Off: Fri Aug 23 07:31:51 2024

Wall Time:        1.51 seconds


                                                       Time (seconds)
Host: lulab
Module                                       User      System        Wall        Calls


--------------------------------------------------------------------------------------

**************************************************************************************
Host: lulab
Timers On : Fri Aug 23 07:31:50 2024

Timers Off: Fri Aug 23 07:31:51 2024


Wall Time:        1.60 seconds

                                                       Time (seconds)
Module                                       User      System        Wall        Calls

Host: lulab

--------------------------------------------------------------------------------------
Timers On : Fri Aug 23 07:31:49 2024


**************************************************************************************
Host: lulab

Timers Off: Fri Aug 23 07:31:51 2024
Timers On : Fri Aug 23 07:31:50 2024

Wall Time:        2.01 seconds

Timers On : Fri Aug 23 07:31:50 2024
Timers Off: Fri Aug 23 07:31:51 2024
                                                       Time (seconds)
Timers Off: Fri Aug 23 07:31:51 2024

Wall Time:        1.43 seconds

Module                                       User      System        Wall        Calls

Wall Time:        1.58 seconds

                                                       Time (seconds)

--------------------------------------------------------------------------------------
                                                       Time (seconds)
Module                                       User      System        Wall        Calls

**************************************************************************************
Module                                       User      System        Wall        Calls

--------------------------------------------------------------------------------------

--------------------------------------------------------------------------------------

**************************************************************************************

**************************************************************************************


Host: lulab


Host: lulab
Timers On : Fri Aug 23 07:31:50 2024

Timers Off: Fri Aug 23 07:31:51 2024

Host: lulab

Wall Time:        1.49 seconds

Timers On : Fri Aug 23 07:31:49 2024
                                                       Time (seconds)

Module                                       User      System        Wall        Calls
Timers Off: Fri Aug 23 07:31:51 2024


--------------------------------------------------------------------------------------
Host: lulab

Wall Time:        1.97 seconds


**************************************************************************************


                                                       Time (seconds)

Timers On : Fri Aug 23 07:31:49 2024
Host: lulab
Module                                       User      System        Wall        Calls
Host: lulab

Timers On : Fri Aug 23 07:31:50 2024

Timers Off: Fri Aug 23 07:31:51 2024

--------------------------------------------------------------------------------------
Host: lulab


Timers Off: Fri Aug 23 07:31:51 2024

Wall Time:        2.01 seconds


**************************************************************************************

Host: lulab


Timers On : Fri Aug 23 07:31:50 2024

Wall Time:        1.57 seconds

                                                       Time (seconds)

Host: lulab

Host: lulab
Timers On : Fri Aug 23 07:31:50 2024
                                                       Time (seconds)

Host: lulab
Timers On : Fri Aug 23 07:31:50 2024
Module                                       User      System        Wall        Calls
Timers Off: Fri Aug 23 07:31:51 2024


Host: lulab
Module                                       User      System        Wall        Calls
Timers On : Fri Aug 23 07:31:50 2024

Timers Off: Fri Aug 23 07:31:51 2024
Timers Off: Fri Aug 23 07:31:51 2024

Wall Time:        1.72 seconds

Host: lulab

--------------------------------------------------------------------------------------


--------------------------------------------------------------------------------------
Timers On : Fri Aug 23 07:31:50 2024
Timers On : Fri Aug 23 07:31:50 2024
Timers Off: Fri Aug 23 07:31:51 2024

Wall Time:        1.49 seconds

                                                       Time (seconds)

Wall Time:        1.38 seconds

Timers On : Fri Aug 23 07:31:50 2024


**************************************************************************************

**************************************************************************************
Timers Off: Fri Aug 23 07:31:51 2024

Wall Time:        1.53 seconds

Timers On : Fri Aug 23 07:31:50 2024
                                                       Time (seconds)
Timers Off: Fri Aug 23 07:31:51 2024
Module                                       User      System        Wall        Calls
                                                       Time (seconds)
Timers Off: Fri Aug 23 07:31:51 2024

Wall Time:        1.37 seconds

                                                       Time (seconds)
Module                                       User      System        Wall        Calls
Timers Off: Fri Aug 23 07:31:51 2024

--------------------------------------------------------------------------------------

Wall Time:        1.37 seconds

Module                                       User      System        Wall        Calls

Wall Time:        1.55 seconds

                                                       Time (seconds)
Timers On : Fri Aug 23 07:31:49 2024
Module                                       User      System        Wall        Calls

--------------------------------------------------------------------------------------

**************************************************************************************

Wall Time:        1.50 seconds

                                                       Time (seconds)
                                                       Time (seconds)

--------------------------------------------------------------------------------------
Module                                       User      System        Wall        Calls

--------------------------------------------------------------------------------------

**************************************************************************************
Timers Off: Fri Aug 23 07:31:51 2024
                                                       Time (seconds)
Module                                       User      System        Wall        Calls
Module                                       User      System        Wall        Calls

**************************************************************************************

**************************************************************************************

--------------------------------------------------------------------------------------

Wall Time:        2.13 seconds

Module                                       User      System        Wall        Calls

--------------------------------------------------------------------------------------

--------------------------------------------------------------------------------------

**************************************************************************************
                                                       Time (seconds)

--------------------------------------------------------------------------------------

**************************************************************************************

**************************************************************************************
Module                                       User      System        Wall        Calls

**************************************************************************************

--------------------------------------------------------------------------------------
Timers On : Fri Aug 23 07:31:49 2024

**************************************************************************************
Timers Off: Fri Aug 23 07:31:51 2024

Wall Time:        2.15 seconds

                                                       Time (seconds)
Module                                       User      System        Wall        Calls

--------------------------------------------------------------------------------------

**************************************************************************************

Host: lulab

Timers On : Fri Aug 23 07:31:55 2024
Timers Off: Fri Aug 23 07:31:56 2024

Wall Time:        0.91 seconds

                                                       Time (seconds)
Module                                       User      System        Wall        Calls

--------------------------------------------------------------------------------------

**************************************************************************************






Host: lulab
Host: lulab
Host: lulab
Host: lulab
Host: lulab
Host: lulab






Timers On : Fri Aug 23 07:31:55 2024
Timers On : Fri Aug 23 07:31:55 2024
Timers Off: Fri Aug 23 07:31:56 2024
Timers On : Fri Aug 23 07:31:55 2024
Timers On : Fri Aug 23 07:31:55 2024
Timers Off: Fri Aug 23 07:31:56 2024
Timers On : Fri Aug 23 07:31:55 2024

Wall Time:        1.61 seconds

Timers Off: Fri Aug 23 07:31:56 2024
Timers On : Fri Aug 23 07:31:54 2024
Timers Off: Fri Aug 23 07:31:56 2024

Wall Time:        0.97 seconds

                                                       Time (seconds)

Wall Time:        0.91 seconds


Wall Time:        1.66 seconds

Timers Off: Fri Aug 23 07:31:56 2024
                                                       Time (seconds)
Timers Off: Fri Aug 23 07:31:56 2024
Module                                       User      System        Wall        Calls
                                                       Time (seconds)
                                                       Time (seconds)

Wall Time:        2.19 seconds

Module                                       User      System        Wall        Calls

--------------------------------------------------------------------------------------
Module                                       User      System        Wall        Calls
Module                                       User      System        Wall        Calls

Wall Time:        1.06 seconds

                                                       Time (seconds)

**************************************************************************************

--------------------------------------------------------------------------------------

--------------------------------------------------------------------------------------

--------------------------------------------------------------------------------------

                                                       Time (seconds)
Module                                       User      System        Wall        Calls

**************************************************************************************
Host: lulab

**************************************************************************************

**************************************************************************************

Module                                       User      System        Wall        Calls

--------------------------------------------------------------------------------------



Host: lulab

--------------------------------------------------------------------------------------

**************************************************************************************
Host: lulab
Host: lulab


**************************************************************************************
Timers On : Fri Aug 23 07:31:55 2024


Timers On : Fri Aug 23 07:31:55 2024
Timers Off: Fri Aug 23 07:31:56 2024
Timers Off: Fri Aug 23 07:31:56 2024

Wall Time:        1.59 seconds


Wall Time:        1.81 seconds

                                                       Time (seconds)
Timers On : Fri Aug 23 07:31:55 2024
Timers On : Fri Aug 23 07:31:55 2024
                                                       Time (seconds)
Module                                       User      System        Wall        Calls
Timers Off: Fri Aug 23 07:31:56 2024

--------------------------------------------------------------------------------------
Module                                       User      System        Wall        Calls

**************************************************************************************
Timers Off: Fri Aug 23 07:31:56 2024

Wall Time:        1.56 seconds


--------------------------------------------------------------------------------------
                                                       Time (seconds)

Wall Time:        0.93 seconds


**************************************************************************************
Module                                       User      System        Wall        Calls
                                                       Time (seconds)

--------------------------------------------------------------------------------------

**************************************************************************************
Module                                       User      System        Wall        Calls

--------------------------------------------------------------------------------------

**************************************************************************************

Host: lulab

Timers On : Fri Aug 23 07:31:55 2024

Timers Off: Fri Aug 23 07:31:56 2024


Wall Time:        1.60 seconds


Host: lulab
                                                       Time (seconds)

Host: lulab
Host: lulab
Module                                       User      System        Wall        Calls


--------------------------------------------------------------------------------------

Timers On : Fri Aug 23 07:31:55 2024

**************************************************************************************
Timers On : Fri Aug 23 07:31:55 2024
Timers Off: Fri Aug 23 07:31:56 2024
Timers On : Fri Aug 23 07:31:55 2024
Timers Off: Fri Aug 23 07:31:56 2024

Wall Time:        0.90 seconds

                                                       Time (seconds)

Wall Time:        0.92 seconds

Timers Off: Fri Aug 23 07:31:56 2024
Module                                       User      System        Wall        Calls
                                                       Time (seconds)


Wall Time:        1.01 seconds


--------------------------------------------------------------------------------------
Module                                       User      System        Wall        Calls

Host: lulab
                                                       Time (seconds)

**************************************************************************************

--------------------------------------------------------------------------------------

Host: lulab
Module                                       User      System        Wall        Calls

**************************************************************************************
Timers On : Fri Aug 23 07:31:55 2024

Timers Off: Fri Aug 23 07:31:56 2024

--------------------------------------------------------------------------------------

Wall Time:        0.93 seconds


**************************************************************************************
                                                       Time (seconds)
Timers On : Fri Aug 23 07:31:55 2024
Module                                       User      System        Wall        Calls

--------------------------------------------------------------------------------------

**************************************************************************************
Timers Off: Fri Aug 23 07:31:56 2024

Wall Time:        0.85 seconds

                                                       Time (seconds)
Module                                       User      System        Wall        Calls

--------------------------------------------------------------------------------------

**************************************************************************************


Host: lulab

Host: lulab

Timers On : Fri Aug 23 07:31:55 2024
Timers Off: Fri Aug 23 07:31:56 2024

Wall Time:        0.87 seconds

Timers On : Fri Aug 23 07:31:55 2024
                                                       Time (seconds)

Module                                       User      System        Wall        Calls
[...]
Timers On : Mon Aug 26 08:59:27 2024
Timers Off: Mon Aug 26 08:59:28 2024

Wall Time:        0.89 seconds

                                                       Time (seconds)
Module                                       User      System        Wall        Calls

--------------------------------------------------------------------------------------

**************************************************************************************

Host: lulab

Timers On : Mon Aug 26 08:59:27 2024
Timers Off: Mon Aug 26 08:59:28 2024

Wall Time:        0.87 seconds

                                                       Time (seconds)
Module                                       User      System        Wall        Calls

--------------------------------------------------------------------------------------

**************************************************************************************

Host: lulab


Timers On : Mon Aug 26 08:59:27 2024
Host: lulab

Timers Off: Mon Aug 26 08:59:28 2024
Timers On : Mon Aug 26 08:59:26 2024

Wall Time:        0.73 seconds

Timers Off: Mon Aug 26 08:59:28 2024
                                                       Time (seconds)

Wall Time:        1.89 seconds

Module                                       User      System        Wall        Calls
                                                       Time (seconds)

--------------------------------------------------------------------------------------
Module                                       User      System        Wall        Calls

**************************************************************************************

--------------------------------------------------------------------------------------

**************************************************************************************

Host: lulab

Timers On : Mon Aug 26 08:59:26 2024
Timers Off: Mon Aug 26 08:59:28 2024

Wall Time:        1.72 seconds

                                                       Time (seconds)
Module                                       User      System        Wall        Calls

--------------------------------------------------------------------------------------


**************************************************************************************
Host: lulab

Timers On : Mon Aug 26 08:59:26 2024


Timers Off: Mon Aug 26 08:59:28 2024
Host: lulab
Host: lulab


Wall Time:        1.43 seconds


                                                       Time (seconds)
Module                                       User      System        Wall        Calls
Timers On : Mon Aug 26 08:59:27 2024

--------------------------------------------------------------------------------------
Timers On : Mon Aug 26 08:59:26 2024

**************************************************************************************
Timers Off: Mon Aug 26 08:59:28 2024
Timers Off: Mon Aug 26 08:59:28 2024


Wall Time:        0.70 seconds


Wall Time:        1.40 seconds

                                                       Time (seconds)
Host: lulab
                                                       Time (seconds)

Module                                       User      System        Wall        Calls

Module                                       User      System        Wall        Calls
Host: lulab

--------------------------------------------------------------------------------------

--------------------------------------------------------------------------------------


**************************************************************************************
Timers On : Mon Aug 26 08:59:27 2024

**************************************************************************************
Timers On : Mon Aug 26 08:59:26 2024
Timers Off: Mon Aug 26 08:59:28 2024
Timers Off: Mon Aug 26 08:59:28 2024

Wall Time:        0.68 seconds


Wall Time:        1.31 seconds

                                                       Time (seconds)
                                                       Time (seconds)
Module                                       User      System        Wall        Calls
Module                                       User      System        Wall        Calls

--------------------------------------------------------------------------------------

--------------------------------------------------------------------------------------

**************************************************************************************

**************************************************************************************

Host: lulab

Timers On : Mon Aug 26 08:59:26 2024
Timers Off: Mon Aug 26 08:59:28 2024

Wall Time:        1.41 seconds

                                                       Time (seconds)

Module                                       User      System        Wall        Calls
Host: lulab

--------------------------------------------------------------------------------------


**************************************************************************************
Timers On : Mon Aug 26 08:59:27 2024
Timers Off: Mon Aug 26 08:59:28 2024

Wall Time:        1.24 seconds

                                                       Time (seconds)
Module                                       User      System        Wall        Calls

--------------------------------------------------------------------------------------

**************************************************************************************

Host: lulab

Timers On : Mon Aug 26 08:59:27 2024
Timers Off: Mon Aug 26 08:59:28 2024

Wall Time:        1.23 seconds

                                                       Time (seconds)
Module                                       User      System        Wall        Calls

--------------------------------------------------------------------------------------

**************************************************************************************


Host: lulab

Host: lulab

Timers On : Mon Aug 26 08:59:26 2024
Timers Off: Mon Aug 26 08:59:28 2024

Wall Time:        1.69 seconds

                                                       Time (seconds)
Timers On : Mon Aug 26 08:59:26 2024
Module                                       User      System        Wall        Calls


--------------------------------------------------------------------------------------
Timers Off: Mon Aug 26 08:59:28 2024

**************************************************************************************
Host: lulab

Wall Time:        1.69 seconds


                                                       Time (seconds)
Module                                       User      System        Wall        Calls

--------------------------------------------------------------------------------------
Timers On : Mon Aug 26 08:59:26 2024

**************************************************************************************
Timers Off: Mon Aug 26 08:59:28 2024

Wall Time:        1.82 seconds

                                                       Time (seconds)
Module                                       User      System        Wall        Calls

--------------------------------------------------------------------------------------

**************************************************************************************

Host: lulab


Timers On : Mon Aug 26 08:59:27 2024
Host: lulab


Timers Off: Mon Aug 26 08:59:28 2024

Host: lulab

Wall Time:        0.61 seconds

Timers On : Mon Aug 26 08:59:27 2024

Host: lulab
Timers Off: Mon Aug 26 08:59:28 2024
                                                       Time (seconds)

Timers On : Mon Aug 26 08:59:27 2024

Wall Time:        1.14 seconds

Module                                       User      System        Wall        Calls
Timers Off: Mon Aug 26 08:59:28 2024
                                                       Time (seconds)

--------------------------------------------------------------------------------------

Wall Time:        0.57 seconds

Timers On : Mon Aug 26 08:59:26 2024
Module                                       User      System        Wall        Calls
                                                       Time (seconds)

**************************************************************************************
Timers Off: Mon Aug 26 08:59:28 2024

--------------------------------------------------------------------------------------
Module                                       User      System        Wall        Calls

Wall Time:        2.04 seconds


**************************************************************************************

--------------------------------------------------------------------------------------
                                                       Time (seconds)

**************************************************************************************
Module                                       User      System        Wall        Calls

--------------------------------------------------------------------------------------

**************************************************************************************

Host: lulab

Timers On : Mon Aug 26 08:59:26 2024
Timers Off: Mon Aug 26 08:59:28 2024

Wall Time:        1.68 seconds

                                                       Time (seconds)
Module                                       User      System        Wall        Calls


--------------------------------------------------------------------------------------


**************************************************************************************

Host: lulab
Host: lulab

Host: lulab


Timers On : Mon Aug 26 08:59:26 2024
Timers Off: Mon Aug 26 08:59:28 2024
Timers On : Mon Aug 26 08:59:27 2024
Timers On : Mon Aug 26 08:59:26 2024

Wall Time:        1.29 seconds

                                                       Time (seconds)
Timers Off: Mon Aug 26 08:59:28 2024
Timers Off: Mon Aug 26 08:59:28 2024
Module                                       User      System        Wall        Calls

Wall Time:        1.66 seconds


--------------------------------------------------------------------------------------

Wall Time:        1.09 seconds

                                                       Time (seconds)

**************************************************************************************
                                                       Time (seconds)
Module                                       User      System        Wall        Calls
Module                                       User      System        Wall        Calls

--------------------------------------------------------------------------------------

--------------------------------------------------------------------------------------

**************************************************************************************

**************************************************************************************

Host: lulab

Timers On : Mon Aug 26 08:59:26 2024
Timers Off: Mon Aug 26 08:59:28 2024

Wall Time:        1.98 seconds

                                                       Time (seconds)
Module                                       User      System        Wall        Calls

--------------------------------------------------------------------------------------

**************************************************************************************

Host: lulab

Timers On : Mon Aug 26 08:59:27 2024
Timers Off: Mon Aug 26 08:59:28 2024

Wall Time:        1.08 seconds

                                                       Time (seconds)
Module                                       User      System        Wall        Calls

--------------------------------------------------------------------------------------

**************************************************************************************

Host: lulab



Timers On : Mon Aug 26 08:59:26 2024
Host: lulab
Host: lulab
Timers Off: Mon Aug 26 08:59:28 2024



Wall Time:        1.81 seconds

                                                       Time (seconds)
Module                                       User      System        Wall        Calls

--------------------------------------------------------------------------------------
Timers On : Mon Aug 26 08:59:27 2024
Timers On : Mon Aug 26 08:59:26 2024

**************************************************************************************
Timers Off: Mon Aug 26 08:59:28 2024
Timers Off: Mon Aug 26 08:59:28 2024

Wall Time:        1.11 seconds

                                                       Time (seconds)

Wall Time:        1.25 seconds

Module                                       User      System        Wall        Calls
                                                       Time (seconds)

--------------------------------------------------------------------------------------

**************************************************************************************
Module                                       User      System        Wall        Calls

--------------------------------------------------------------------------------------

**************************************************************************************

Host: lulab


Timers On : Mon Aug 26 08:59:26 2024
Host: lulab
Timers Off: Mon Aug 26 08:59:28 2024


Wall Time:        1.59 seconds

                                                       Time (seconds)
Module                                       User      System        Wall        Calls

--------------------------------------------------------------------------------------

**************************************************************************************
Timers On : Mon Aug 26 08:59:27 2024
Timers Off: Mon Aug 26 08:59:28 2024

Wall Time:        1.24 seconds

                                                       Time (seconds)
Module                                       User      System        Wall        Calls

--------------------------------------------------------------------------------------


**************************************************************************************
Host: lulab

Timers On : Mon Aug 26 08:59:27 2024
Timers Off: Mon Aug 26 08:59:28 2024

Wall Time:        1.06 seconds

                                                       Time (seconds)
Module                                       User      System        Wall        Calls

--------------------------------------------------------------------------------------

**************************************************************************************

Host: lulab

Timers On : Mon Aug 26 08:59:27 2024
Timers Off: Mon Aug 26 08:59:28 2024

Wall Time:        1.23 seconds

                                                       Time (seconds)
Module                                       User      System        Wall        Calls

--------------------------------------------------------------------------------------

**************************************************************************************

Host: lulab

Timers On : Mon Aug 26 08:59:27 2024
Timers Off: Mon Aug 26 08:59:28 2024

Wall Time:        1.17 seconds

                                                       Time (seconds)
Module                                       User      System        Wall        Calls

--------------------------------------------------------------------------------------

**************************************************************************************

Host: lulab

Timers On : Mon Aug 26 08:59:27 2024
Timers Off: Mon Aug 26 08:59:28 2024

Wall Time:        1.03 seconds

                                                       Time (seconds)
Module                                       User      System        Wall        Calls

--------------------------------------------------------------------------------------

**************************************************************************************

Host: lulab

Timers On : Mon Aug 26 08:59:27 2024
Timers Off: Mon Aug 26 08:59:28 2024

Wall Time:        1.20 seconds

                                                       Time (seconds)
Module                                       User      System        Wall        Calls

--------------------------------------------------------------------------------------

**************************************************************************************

Host: lulab

Timers On : Mon Aug 26 08:59:27 2024
Timers Off: Mon Aug 26 08:59:28 2024

Wall Time:        0.98 seconds

                                                       Time (seconds)
Module                                       User      System        Wall        Calls

--------------------------------------------------------------------------------------

**************************************************************************************

Host: lulab

Timers On : Mon Aug 26 08:59:26 2024
Timers Off: Mon Aug 26 08:59:28 2024

Wall Time:        1.56 seconds

                                                       Time (seconds)
Module                                       User      System        Wall        Calls

--------------------------------------------------------------------------------------

**************************************************************************************

Host: lulab

Timers On : Mon Aug 26 08:59:26 2024
Timers Off: Mon Aug 26 08:59:28 2024

Wall Time:        1.58 seconds

                                                       Time (seconds)
Module                                       User      System        Wall        Calls

--------------------------------------------------------------------------------------

**************************************************************************************

Host: lulab

Timers On : Mon Aug 26 08:59:26 2024
Timers Off: Mon Aug 26 08:59:28 2024

Wall Time:        1.56 seconds

                                                       Time (seconds)
Module                                       User      System        Wall        Calls

--------------------------------------------------------------------------------------

**************************************************************************************

Host: lulab

Timers On : Tue Aug 27 00:54:58 2024
Timers Off: Tue Aug 27 00:54:59 2024

Wall Time:        0.26 seconds

                                                       Time (seconds)
Module                                       User      System        Wall        Calls

--------------------------------------------------------------------------------------

**************************************************************************************



Host: lulab
Host: lulab

Host: lulab


Timers On : Tue Aug 27 00:55:01 2024
Timers On : Tue Aug 27 00:55:01 2024
Timers On : Tue Aug 27 00:55:01 2024
Timers Off: Tue Aug 27 00:55:01 2024
Timers Off: Tue Aug 27 00:55:01 2024
Timers Off: Tue Aug 27 00:55:01 2024

Wall Time:        0.28 seconds


Wall Time:        0.28 seconds

                                                       Time (seconds)
                                                       Time (seconds)
Module                                       User      System        Wall        Calls

Wall Time:        0.28 seconds

Module                                       User      System        Wall        Calls

--------------------------------------------------------------------------------------
                                                       Time (seconds)

--------------------------------------------------------------------------------------

**************************************************************************************
Module                                       User      System        Wall        Calls

**************************************************************************************

--------------------------------------------------------------------------------------

**************************************************************************************
